# Time           	Tmin             	at location      	Tmax             	at location      	Tmean            	TstDev           	Umin             	at location      	Umax             	at location      	Umean            	UstDev           	pmin             	at location      	pmax             	at location      	pmean            	pstDev           
0.000474757      2.9999734355e+02 ( 8.8095238095e-03 9.1250000000e-02 2.4618470612e-20 ) 3.0007468844e+02 ( 3.8888888889e-03 9.6250000000e-02 0.0000000000e+00 ) 3.0000309378e+02 1.2624192614e-02 1.8862002646e-09 ( 2.0875249501e-01 4.9875000000e-01 -5.2740340210e-20 ) 8.2552436232e+00 ( 8.8095238095e-03 9.8750000000e-02 2.4618470612e-20 ) 1.2332706670e-02 5.9702272763e-02 -1.2964391299e+04 ( 1.6666666667e-03 9.6250000000e-02 1.2821320174e-20 ) 5.2890197307e+03 ( 1.6666666667e-03 1.0375000000e-01 1.2821320174e-20 ) 4.2898927762e+01 1.7714823083e+02 
