# Time           	Umin             	at location      	Umax             	at location      	Umean            	UstDev           	pmin             	at location      	pmax             	at location      	pmean            	pstDev           	Tmin             	at location      	Tmax             	at location      	Tmean            	TstDev           	totalVolume      
1e-05            2.0616334227e-09 ( -2.4740152445e-03 2.4833706191e-03 -6.6684485000e-21 ) 1.4273197997e-05 ( -3.6052001442e-03 1.9804016313e-03 2.3680714468e-21 ) 6.4826814564e-07 1.0057323451e-06 1.9852216104e-04 ( -7.4833333335e-03 2.4421312095e-03 1.9824240516e-21 ) 8.7970897252e-02 ( -1.2104759781e-04 1.9296182858e-03 6.9779159141e-22 ) 4.6837020759e-02 2.7069890284e-02 2.9999997591e+02 ( -1.2104759781e-04 2.4167049807e-03 -5.7938529376e-21 ) 3.5072771181e+02 ( -3.5352142385e-03 2.0045579301e-03 3.4810824613e-22 ) 3.0042466664e+02 3.0052263134e+00 1.7377965853e-09 
2e-05            2.6490113179e-09 ( -6.5450898771e-03 2.4474637172e-03 -3.3951483772e-21 ) 3.5608679355e-05 ( -3.6751872052e-03 1.9562453061e-03 -7.6352766851e-21 ) 9.7602059897e-07 2.4896518174e-06 1.9619217238e-04 ( -7.4833333335e-03 2.4421312095e-03 1.9824240516e-21 ) 8.6909710325e-02 ( -1.2104759781e-04 2.3500394011e-03 7.9771767809e-22 ) 4.6219001414e-02 2.6722914193e-02 2.9999997591e+02 ( -1.2104759781e-04 2.4167049807e-03 -5.7938529376e-21 ) 3.8312410336e+02 ( -3.5352142385e-03 2.0045579301e-03 3.4810824613e-22 ) 3.0080331610e+02 5.3324427633e+00 1.7377965853e-09 
3e-05            2.6569109213e-08 ( -1.9785494985e-03 1.9296182858e-03 -5.3256668696e-21 ) 6.0788765034e-05 ( -3.7451752709e-03 1.9320890206e-03 0.0000000000e+00 ) 1.6516781604e-06 4.6902567293e-06 1.9638632203e-04 ( -7.4833333335e-03 2.4421312095e-03 1.9824240516e-21 ) 8.6743045359e-02 ( -1.2104759789e-04 1.2222590800e-04 2.3857508908e-22 ) 4.6127257903e-02 2.6663768994e-02 2.9999997590e+02 ( -1.2104759781e-04 2.4167049807e-03 -5.7938529376e-21 ) 4.0436885426e+02 ( -3.5352142385e-03 2.0045579301e-03 3.4810824613e-22 ) 3.0114641198e+02 7.2072021022e+00 1.7377965853e-09 
4e-05            1.3789085372e-08 ( -2.4740152445e-03 1.9296182858e-03 3.1682896955e-21 ) 8.6392963381e-05 ( -3.7451752709e-03 1.9320890206e-03 0.0000000000e+00 ) 2.4614219587e-06 7.2307878643e-06 1.9631659774e-04 ( -7.4833333335e-03 2.4421312095e-03 1.9824240516e-21 ) 8.6650842078e-02 ( -1.2104759781e-04 2.3167066345e-03 -7.6044129220e-21 ) 4.6059573974e-02 2.6624769713e-02 2.9999997590e+02 ( -1.2104759781e-04 2.4167049807e-03 -5.7938529376e-21 ) 4.1946912291e+02 ( -7.0166666665e-03 7.7777776770e-05 -2.0322355277e-22 ) 3.0146132198e+02 8.7690103058e+00 1.7377965853e-09 
5e-05            3.5532687216e-08 ( -3.4394762010e-03 1.2222590800e-04 -5.1950181264e-22 ) 1.1200208401e-04 ( -3.8151642143e-03 1.9079328336e-03 -5.6608950334e-21 ) 3.4129738003e-06 1.0034796638e-05 1.9621873634e-04 ( -7.4833333335e-03 2.4421312095e-03 1.9824240516e-21 ) 8.6557384675e-02 ( -1.2104759789e-04 1.2222590800e-04 2.3857508908e-22 ) 4.6002672443e-02 2.6592549031e-02 2.9999997589e+02 ( -1.2104759781e-04 2.4167049807e-03 -5.7938529376e-21 ) 4.3030621000e+02 ( -7.0166666665e-03 7.7777776770e-05 -2.0322355277e-22 ) 3.0175336742e+02 1.0105204445e+01 1.7377965853e-09 
6e-05            3.0551477673e-08 ( -3.4394762010e-03 1.2222590800e-04 -5.1950181264e-22 ) 1.3714269154e-04 ( -3.9551443232e-03 1.8596209584e-03 0.0000000000e+00 ) 4.4559021696e-06 1.3003240211e-05 1.9610916465e-04 ( -7.4833333335e-03 2.4421312095e-03 1.9824240516e-21 ) 8.6493498902e-02 ( -1.2104759781e-04 2.3167066345e-03 -7.6044129220e-21 ) 4.5956375339e-02 2.6568035648e-02 2.9999997589e+02 ( -1.2104759781e-04 2.4167049807e-03 -5.7938529376e-21 ) 4.3823774480e+02 ( -7.0166666665e-03 7.7777776770e-05 -2.0322355277e-22 ) 3.0202648483e+02 1.1272692674e+01 1.7377965853e-09 
7e-05            2.6920873403e-08 ( -3.3161798390e-03 1.2222590800e-04 1.7421564543e-22 ) 1.6216793090e-04 ( -4.0251353200e-03 1.8354653622e-03 1.9976493376e-21 ) 5.6030664884e-06 1.6139854014e-05 1.9600274342e-04 ( -7.4833333335e-03 2.4421312095e-03 1.9824240516e-21 ) 8.6419325087e-02 ( -1.2104759789e-04 1.2222590800e-04 2.3857508908e-22 ) 4.5908604255e-02 2.6541115218e-02 2.9999997588e+02 ( -1.2104759781e-04 2.4167049807e-03 -5.7938529376e-21 ) 4.4421234114e+02 ( -7.0166666665e-03 7.7777776770e-05 -2.0322355277e-22 ) 3.0228365193e+02 1.2309941699e+01 1.7377965853e-09 
8e-05            1.9614351953e-08 ( -3.3161798390e-03 1.2222590800e-04 1.7421564543e-22 ) 1.8693730104e-04 ( -4.0951268518e-03 1.8113100492e-03 -1.9737069494e-21 ) 6.8368265896e-06 1.9400789964e-05 1.9590270176e-04 ( -7.4833333335e-03 2.4421312095e-03 1.9824240516e-21 ) 8.6354536894e-02 ( -1.2104759781e-04 2.4833706191e-03 -7.6949833346e-22 ) 4.5864574262e-02 2.6516370475e-02 2.9999997587e+02 ( -1.2104759781e-04 2.4500377929e-03 -9.1509625845e-21 ) 4.4884015411e+02 ( -7.0166666665e-03 3.2564102559e-04 -2.1419463972e-22 ) 3.0252716822e+02 1.3243819127e+01 1.7377965853e-09 
9e-05            1.5556357374e-08 ( -5.8804769901e-04 2.4833706191e-03 -9.2968000719e-21 ) 2.1153432044e-04 ( -4.2351112957e-03 1.7630004280e-03 0.0000000000e+00 ) 8.1502584541e-06 2.2764995818e-05 1.9580635930e-04 ( -7.4833333335e-03 2.4421312095e-03 1.9824240516e-21 ) 8.6293668437e-02 ( -1.2104759781e-04 1.3941073909e-03 -7.3478534839e-22 ) 4.5824302960e-02 2.6493899513e-02 2.9999997587e+02 ( -1.2104759781e-04 2.4500377929e-03 -9.1509625845e-21 ) 4.5251968698e+02 ( -7.0166666665e-03 3.2564102559e-04 -2.1419463972e-22 ) 3.0275884376e+02 1.4093677652e+01 1.7377965853e-09 
0.0001           8.6040473286e-09 ( -5.8804769901e-04 2.4833706191e-03 -9.2968000719e-21 ) 2.3612287315e-04 ( -4.3051041122e-03 1.7388461939e-03 3.8148214404e-21 ) 9.5312166711e-06 2.6204587575e-05 1.9571324760e-04 ( -7.4833333335e-03 2.4421312095e-03 1.9824240516e-21 ) 8.6237927022e-02 ( -1.2104759781e-04 2.4833706191e-03 -7.6949833346e-22 ) 4.5786626793e-02 2.6472975092e-02 2.9999997586e+02 ( -1.2104759781e-04 2.4500377929e-03 -9.1509625845e-21 ) 4.5551562842e+02 ( -7.0166666665e-03 3.2564102559e-04 -2.1419463972e-22 ) 3.0298012860e+02 1.4873852635e+01 1.7377965853e-09 
0.00011          1.1724339978e-08 ( -5.8804769901e-04 2.4833706191e-03 -9.2968000719e-21 ) 2.6059125998e-04 ( -4.3750972712e-03 1.7146923920e-03 3.6808266504e-21 ) 1.0971729366e-05 2.9700035636e-05 1.9562476317e-04 ( -7.4833333335e-03 2.4421312095e-03 1.9824240516e-21 ) 8.6186465148e-02 ( -1.2104759781e-04 1.7642691230e-03 -6.8905719129e-21 ) 4.5752126929e-02 2.6453992828e-02 2.9999997586e+02 ( -1.2104759781e-04 2.4833706191e-03 -7.6949833346e-22 ) 4.5800701605e+02 ( -7.0166666665e-03 3.2564102559e-04 -2.1419463972e-22 ) 3.0319220322e+02 1.5595222854e+01 1.7377965853e-09 
0.00012          1.7822488910e-08 ( -5.8804769901e-04 2.4833706191e-03 -9.2968000719e-21 ) 2.8503479599e-04 ( -4.5150844805e-03 1.6663862285e-03 4.9139735407e-23 ) 1.2462767999e-05 3.3231622154e-05 1.9554228863e-04 ( -7.4833333335e-03 2.4421312095e-03 1.9824240516e-21 ) 8.6139802476e-02 ( -1.2104759781e-04 2.4833706191e-03 -7.6949833346e-22 ) 4.5720505550e-02 2.6436714856e-02 2.9999997585e+02 ( -1.2104759781e-04 2.4833706191e-03 -7.6949833346e-22 ) 4.6011731459e+02 ( -7.0166666665e-03 2.7575757568e-04 -1.1253500914e-23 ) 3.0339604266e+02 1.6266232066e+01 1.7377965853e-09 
0.00013          2.1341852823e-08 ( -3.5880638409e-04 1.2222590800e-04 1.8740214049e-22 ) 3.0949224573e-04 ( -4.5850784724e-03 1.6422339381e-03 -5.6791456437e-21 ) 1.3998620367e-05 3.6788943615e-05 1.9546416063e-04 ( -7.4833333335e-03 2.4421312095e-03 1.9824240516e-21 ) 8.6096710900e-02 ( -1.2104759781e-04 2.4833706191e-03 -7.6949833346e-22 ) 4.5691372968e-02 2.6420924461e-02 2.9999997585e+02 ( -1.2104759781e-04 2.4833706191e-03 -7.6949833346e-22 ) 4.6193338931e+02 ( -7.0166666665e-03 2.7575757568e-04 -1.1253500914e-23 ) 3.0359246279e+02 1.6893568170e+01 1.7377965853e-09 
0.00014          2.1710750247e-08 ( -3.5880638409e-04 1.2222590800e-04 1.8740214049e-22 ) 3.3388121323e-04 ( -4.6550726879e-03 1.6180822244e-03 -1.9748667710e-21 ) 1.5574731458e-05 4.0364276082e-05 1.9538991651e-04 ( -7.4833333335e-03 2.4421312095e-03 1.9824240516e-21 ) 8.6055707189e-02 ( -1.2104759781e-04 2.4833706191e-03 -7.6949833346e-22 ) 4.5663640431e-02 2.6405823146e-02 2.9999997584e+02 ( -1.2104759781e-04 2.4833706191e-03 -7.6949833346e-22 ) 4.6351761512e+02 ( -7.0166666665e-03 2.7575757568e-04 -1.1253500914e-23 ) 3.0378215436e+02 1.7482615989e+01 1.7377965853e-09 
0.00015          2.3377785858e-08 ( -3.5880638409e-04 1.2222590800e-04 1.8740214049e-22 ) 3.5819743478e-04 ( -4.7250671046e-03 1.5939311245e-03 -5.0717096961e-21 ) 1.7187465810e-05 4.3951639637e-05 1.9531918518e-04 ( -7.4833333335e-03 2.4421312095e-03 1.9824240516e-21 ) 8.6017928894e-02 ( -1.2104759781e-04 2.4833706191e-03 -7.6949833346e-22 ) 4.5638048426e-02 2.6392026909e-02 2.9999997584e+02 ( -1.2104759781e-04 2.4833706191e-03 -7.6949833346e-22 ) 4.6491569842e+02 ( -7.0166666665e-03 2.7575757568e-04 -1.1253500914e-23 ) 3.0396570827e+02 1.8037784990e+01 1.7377965853e-09 
0.00016          2.6106935372e-08 ( -3.5880638409e-04 1.2222590800e-04 1.8740214049e-22 ) 3.8245975218e-04 ( -4.7950617022e-03 1.5697806771e-03 5.3121979330e-21 ) 1.8834445837e-05 4.7546437695e-05 1.9525161422e-04 ( -7.4833333335e-03 2.4421312095e-03 1.9824240516e-21 ) 8.5980800700e-02 ( -1.2104759781e-04 2.4833706191e-03 -7.6949833346e-22 ) 4.5613049678e-02 2.6378359817e-02 2.9999997583e+02 ( -1.2104759781e-04 2.4833706191e-03 -7.6949833346e-22 ) 4.6616179865e+02 ( -7.0166666665e-03 2.7575757568e-04 -1.1253500914e-23 ) 3.0414363479e+02 1.8562730292e+01 1.7377965853e-09 
0.00017          2.9595642017e-08 ( -3.5880638409e-04 1.2222590800e-04 1.8740214049e-22 ) 4.0674610324e-04 ( -4.9350513659e-03 1.5214819019e-03 2.0393626057e-21 ) 2.0513655401e-05 5.1144887148e-05 1.9518747766e-04 ( -7.4833333335e-03 2.4421312095e-03 1.9824240516e-21 ) 8.5944476794e-02 ( -1.2104759781e-04 2.4833706191e-03 -7.6949833346e-22 ) 4.5588765502e-02 2.6364925104e-02 2.9999997583e+02 ( -1.2104759781e-04 2.4833706191e-03 -7.6949833346e-22 ) 4.6728193067e+02 ( -7.0166666665e-03 2.7575757568e-04 -1.1253500914e-23 ) 3.0431637820e+02 1.9060523430e+01 1.7377965853e-09 
0.00018          3.3622724285e-08 ( -3.5880638409e-04 1.2222590800e-04 1.8740214049e-22 ) 4.3099357712e-04 ( -5.0050463992e-03 1.4973336589e-03 0.0000000000e+00 ) 2.2223041737e-05 5.4743473936e-05 1.9512657255e-04 ( -7.4833333335e-03 2.4421312095e-03 1.9824240516e-21 ) 8.5909375279e-02 ( -1.2104759781e-04 2.4833706191e-03 -7.6949833346e-22 ) 4.5565364925e-02 2.6351906251e-02 2.9999997582e+02 ( -1.2104759781e-04 2.4833706191e-03 -7.6949833346e-22 ) 4.6829626043e+02 ( -7.0166666665e-03 2.2592592581e-04 -3.4277369097e-22 ) 3.0448432831e+02 1.9533771291e+01 1.7377965853e-09 
0.00019          3.8017315485e-08 ( -3.5880638409e-04 1.2222590800e-04 1.8740214049e-22 ) 4.5518940169e-04 ( -5.0750415467e-03 1.4731862393e-03 -5.5617748543e-21 ) 2.3960548159e-05 5.8340128975e-05 1.9506837286e-04 ( -7.4833333335e-03 2.4421312095e-03 1.9824240516e-21 ) 8.5874888075e-02 ( -1.2104759781e-04 2.4833706191e-03 -7.6949833346e-22 ) 4.5542503440e-02 2.6339054930e-02 2.9999997582e+02 ( -1.2104759781e-04 2.4833706191e-03 -7.6949833346e-22 ) 4.6922067693e+02 ( -7.0166666665e-03 2.2592592581e-04 -3.4277369097e-22 ) 3.0464782940e+02 1.9984707950e+01 1.7377965853e-09 
0.0002           4.2674944225e-08 ( -3.5880638409e-04 1.2222590800e-04 1.8740214049e-22 ) 4.7934096044e-04 ( -5.1450367946e-03 1.4490396907e-03 3.5755647352e-21 ) 2.5724232556e-05 6.1933275360e-05 1.9500830150e-04 ( -7.4833333335e-03 2.4421312095e-03 1.9824240516e-21 ) 8.5841880128e-02 ( -1.2104759781e-04 2.4833706191e-03 -7.6949833346e-22 ) 4.5520520261e-02 2.6326853151e-02 2.9999997581e+02 ( -1.2104759781e-04 2.4833706191e-03 -7.6949833346e-22 ) 4.7006788693e+02 ( -7.0166666665e-03 2.2592592581e-04 -3.4277369097e-22 ) 3.0480718741e+02 2.0415265995e+01 1.7377965853e-09 
0.00021          4.7501690148e-08 ( -3.5880638409e-04 1.2222590800e-04 1.8740214049e-22 ) 5.0343882829e-04 ( -5.2150321304e-03 1.4248940636e-03 1.8369216486e-21 ) 2.7511685315e-05 6.5521973045e-05 1.9495789010e-04 ( -7.4833333335e-03 2.4421312095e-03 1.9824240516e-21 ) 8.5810224471e-02 ( -1.2104759781e-04 2.4833706191e-03 -7.6949833346e-22 ) 4.5499656644e-02 2.6314977900e-02 2.9999997581e+02 ( -1.2104759781e-04 2.4833706191e-03 -7.6949833346e-22 ) 4.7084819222e+02 ( -7.0166666665e-03 2.2592592581e-04 -3.4277369097e-22 ) 3.0496267571e+02 2.0827127409e+01 1.7377965853e-09 
0.00022          5.1831573948e-08 ( -5.8804769901e-04 2.4833706191e-03 -9.2968000719e-21 ) 5.2746581957e-04 ( -5.2850275415e-03 1.4007494119e-03 -7.0924189592e-21 ) 2.9322049715e-05 6.9104423959e-05 1.9490654397e-04 ( -7.4833333335e-03 2.4421312095e-03 1.9824240516e-21 ) 8.5778313850e-02 ( -1.2104759781e-04 2.4833706191e-03 -7.6949833346e-22 ) 4.5478685749e-02 2.6302995245e-02 2.9999997580e+02 ( -1.2104759781e-04 2.4833706191e-03 -7.6949833346e-22 ) 4.7157004726e+02 ( -7.0166666665e-03 2.2592592581e-04 -3.4277369097e-22 ) 3.0511453977e+02 2.1221770268e+01 1.7377965853e-09 
0.00023          5.3651349531e-08 ( -5.8804769901e-04 2.4833706191e-03 -9.2968000719e-21 ) 5.5140864643e-04 ( -5.3550230166e-03 1.3766057918e-03 7.2708561068e-22 ) 3.1153726285e-05 7.2679773438e-05 1.9485717342e-04 ( -7.4833333335e-03 2.4421312095e-03 1.9824240516e-21 ) 8.5746385640e-02 ( -1.2104759781e-04 2.4833706191e-03 -7.6949833346e-22 ) 4.5457841141e-02 2.6290927781e-02 2.9999997579e+02 ( -1.2104759781e-04 2.4833706191e-03 -7.6949833346e-22 ) 4.7224046726e+02 ( -7.0166666665e-03 2.2592592581e-04 -3.4277369097e-22 ) 3.0526300108e+02 2.1600494017e+01 1.7377965853e-09 
0.00024          5.2117962827e-08 ( -1.2104759781e-04 2.4833706191e-03 -7.6949833346e-22 ) 5.7532369774e-04 ( -5.3550230166e-03 1.3766057918e-03 7.2708561068e-22 ) 3.3005004322e-05 7.6247393254e-05 1.9480951714e-04 ( -7.4833333335e-03 2.4421312095e-03 1.9824240516e-21 ) 8.5715518885e-02 ( -1.2104759781e-04 2.4833706191e-03 -7.6949833346e-22 ) 4.5437701335e-02 2.6279259705e-02 2.9999997579e+02 ( -1.2104759781e-04 2.4833706191e-03 -7.6949833346e-22 ) 4.7286533124e+02 ( -7.0166666665e-03 2.2592592581e-04 -3.4277369097e-22 ) 3.0540826031e+02 2.1964458645e+01 1.7377965853e-09 
0.00025          4.9922729275e-08 ( -1.2104759781e-04 2.4833706191e-03 -7.6949833346e-22 ) 5.9918950032e-04 ( -5.4250185447e-03 1.3524632639e-03 5.8193580330e-22 ) 3.4874118241e-05 7.9804520948e-05 1.9476309887e-04 ( -7.4833333335e-03 2.4421312095e-03 1.9824240516e-21 ) 8.5686197030e-02 ( -1.2104759781e-04 2.4833706191e-03 -7.6949833346e-22 ) 4.5418519105e-02 2.6268214405e-02 2.9999997578e+02 ( -1.2104759781e-04 2.4833706191e-03 -7.6949833346e-22 ) 4.7344961063e+02 ( -7.0166666665e-03 1.7619047601e-04 -5.7421337311e-22 ) 3.0555050002e+02 2.2314696794e+01 1.7377965853e-09 
0.00026          4.7862091407e-08 ( -1.2104759781e-04 2.4833706191e-03 -7.6949833346e-22 ) 6.2291345079e-04 ( -5.4950141149e-03 1.3283218927e-03 -1.5288462059e-21 ) 3.6759782837e-05 8.3350807413e-05 1.9471766389e-04 ( -7.4833333335e-03 2.4421312095e-03 1.9824240516e-21 ) 8.5656754956e-02 ( -1.2104759781e-04 2.4833706191e-03 -7.6949833346e-22 ) 4.5399351739e-02 2.6257067645e-02 2.9999997578e+02 ( -1.2104759781e-04 2.4833706191e-03 -7.6949833346e-22 ) 4.7399754367e+02 ( -7.0166666665e-03 1.7619047601e-04 -5.7421337311e-22 ) 3.0568988681e+02 2.2652135980e+01 1.7377965853e-09 
0.00027          4.5924799059e-08 ( -1.2104759781e-04 2.4833706191e-03 -7.6949833346e-22 ) 6.4651888976e-04 ( -5.5650097171e-03 1.3041817464e-03 -3.2376774159e-21 ) 3.8660617401e-05 8.6886785838e-05 1.9467341079e-04 ( -7.4833333335e-03 2.4421312095e-03 1.9824240516e-21 ) 8.5627656416e-02 ( -1.2104759781e-04 2.4833706191e-03 -7.6949833346e-22 ) 4.5380455805e-02 2.6246023891e-02 2.9999997577e+02 ( -1.2104759781e-04 2.4833706191e-03 -7.6949833346e-22 ) 4.7451276770e+02 ( -7.0166666665e-03 1.7619047601e-04 -5.7421337311e-22 ) 3.0582657328e+02 2.2977612901e+01 1.7377965853e-09 
0.00028          4.4098140345e-08 ( -1.2104759781e-04 2.4833706191e-03 -7.6949833346e-22 ) 6.6999065550e-04 ( -5.5650097171e-03 1.3041817464e-03 -3.2376774159e-21 ) 4.0576923241e-05 9.0412242291e-05 1.9463154926e-04 ( -7.4833333335e-03 2.4421312095e-03 1.9824240516e-21 ) 8.5599283549e-02 ( -1.2104759781e-04 2.4833706191e-03 -7.6949833346e-22 ) 4.5362067929e-02 2.6235224293e-02 2.9999997577e+02 ( -1.2104759781e-04 2.4833706191e-03 -7.6949833346e-22 ) 4.7499842759e+02 ( -7.0166666665e-03 1.7619047601e-04 -5.7421337311e-22 ) 3.0596069956e+02 2.3291885474e+01 1.7377965853e-09 
0.00029          4.2372065297e-08 ( -1.2104759781e-04 2.4833706191e-03 -7.6949833346e-22 ) 6.9351397987e-04 ( -5.6350053413e-03 1.2800428987e-03 -6.7150289788e-23 ) 4.2507849000e-05 9.3927608916e-05 1.9459166910e-04 ( -7.4833333335e-03 2.4421312095e-03 1.9824240516e-21 ) 8.5571259343e-02 ( -1.2104759781e-04 2.4833706191e-03 -7.6949833346e-22 ) 4.5343963935e-02 2.6224516257e-02 2.9999997576e+02 ( -1.2104759781e-04 2.4833706191e-03 -7.6949833346e-22 ) 4.7545725818e+02 ( -7.0166666665e-03 1.7619047601e-04 -5.7421337311e-22 ) 3.0609239472e+02 2.3595642163e+01 1.7377965853e-09 
0.0003           4.0738265138e-08 ( -1.2104759781e-04 2.4833706191e-03 -7.6949833346e-22 ) 7.1681473228e-04 ( -5.7050009775e-03 1.2559054289e-03 -4.2958434472e-21 ) 4.4451711965e-05 9.7433150762e-05 1.9455148308e-04 ( -7.4833333335e-03 2.4421312095e-03 1.9824240516e-21 ) 8.5543473697e-02 ( -1.2104759781e-04 2.4833706191e-03 -7.6949833346e-22 ) 4.5326029030e-02 2.6213897368e-02 2.9999997576e+02 ( -1.2104759781e-04 2.4833706191e-03 -7.6949833346e-22 ) 4.7589165102e+02 ( -7.0166666665e-03 1.7619047601e-04 -5.7421337311e-22 ) 3.0622177795e+02 2.3889511718e+01 1.7377965853e-09 
0.00031          3.9188734010e-08 ( -1.2104759781e-04 2.4833706191e-03 -7.6949833346e-22 ) 7.3991325563e-04 ( -5.7050009775e-03 1.2559054289e-03 -4.2958434472e-21 ) 4.6410410942e-05 1.0092808959e-04 1.9451227293e-04 ( -7.4833333335e-03 2.4421312095e-03 1.9824240516e-21 ) 8.5515677206e-02 ( -1.2104759781e-04 2.4833706191e-03 -7.6949833346e-22 ) 4.5308141837e-02 2.6203239408e-02 2.9999997575e+02 ( -1.2104759781e-04 2.4833706191e-03 -7.6949833346e-22 ) 4.7630370815e+02 ( -7.0166666665e-03 1.7619047601e-04 -5.7421337311e-22 ) 3.0634895957e+02 2.4174069247e+01 1.7377965853e-09 
0.00032          3.7716749631e-08 ( -1.2104759781e-04 2.4833706191e-03 -7.6949833346e-22 ) 7.6306388479e-04 ( -5.7749966158e-03 1.2317694210e-03 -2.1848347556e-21 ) 4.8381523534e-05 1.0441358445e-04 1.9447310174e-04 ( -7.4833333335e-03 2.4421312095e-03 1.9824240516e-21 ) 8.5487867577e-02 ( -1.2104759781e-04 2.4833706191e-03 -7.6949833346e-22 ) 4.5290265876e-02 2.6192563412e-02 2.9999997575e+02 ( -1.2104759781e-04 2.4833706191e-03 -7.6949833346e-22 ) 4.7669528587e+02 ( -7.0166666665e-03 1.7619047601e-04 -5.7421337311e-22 ) 3.0647404197e+02 2.4449842350e+01 1.7377965853e-09 
0.00033          3.6315794342e-08 ( -1.2104759781e-04 2.4833706191e-03 -7.6949833346e-22 ) 7.8600223530e-04 ( -5.8449922466e-03 1.2076349667e-03 2.6103592316e-23 ) 5.0365312510e-05 1.0788963313e-04 1.9443506662e-04 ( -7.4833333335e-03 2.4421312095e-03 1.9824240516e-21 ) 8.5460021614e-02 ( -1.2104759781e-04 2.4833706191e-03 -7.6949833346e-22 ) 4.5272411318e-02 2.6181840404e-02 2.9999997574e+02 ( -1.2104759781e-04 2.4833706191e-03 -7.6949833346e-22 ) 4.7706803212e+02 ( -7.0166666665e-03 1.2666666630e-04 -4.0828835247e-22 ) 3.0659712030e+02 2.4717317664e+01 1.7377965853e-09 
0.00034          3.4981892254e-08 ( -1.2104759781e-04 2.4833706191e-03 -7.6949833346e-22 ) 8.0871723556e-04 ( -5.9149878599e-03 1.1835021645e-03 -1.7061285670e-21 ) 5.2361414067e-05 1.1135489697e-04 1.9439829162e-04 ( -7.4833333335e-03 2.4421312095e-03 1.9824240516e-21 ) 8.5433399298e-02 ( -1.2104759781e-04 2.4833706191e-03 -7.6949833346e-22 ) 4.5255307856e-02 2.6171608071e-02 2.9999997574e+02 ( -1.2104759781e-04 2.4833706191e-03 -7.6949833346e-22 ) 4.7742341249e+02 ( -7.0166666665e-03 1.2666666630e-04 -4.0828835247e-22 ) 3.0671828314e+02 2.4976945267e+01 1.7377965853e-09 
0.00035          3.3709999191e-08 ( -1.2104759781e-04 2.4833706191e-03 -7.6949833346e-22 ) 8.3149098671e-04 ( -5.9149878599e-03 1.1835021645e-03 -1.7061285670e-21 ) 5.4367223166e-05 1.1481044820e-04 1.9436397047e-04 ( -7.4833333335e-03 2.4421312095e-03 1.9824240516e-21 ) 8.5407088530e-02 ( -1.2104759781e-04 2.4833706191e-03 -7.6949833346e-22 ) 4.5238474753e-02 2.6161446986e-02 2.9999997573e+02 ( -1.2104759781e-04 2.4833706191e-03 -7.6949833346e-22 ) 4.7776273762e+02 ( -7.0166666665e-03 1.2666666630e-04 -4.0828835247e-22 ) 3.0683761314e+02 2.5229138936e+01 1.7377965853e-09 
0.00036          3.2495391963e-08 ( -1.2104759781e-04 2.4833706191e-03 -7.6949833346e-22 ) 8.5399581188e-04 ( -5.9849834457e-03 1.1593711206e-03 -6.1997116245e-23 ) 5.6385285609e-05 1.1825515096e-04 1.9432774396e-04 ( -7.4833333335e-03 2.4421312095e-03 1.9824240516e-21 ) 8.5380188429e-02 ( -1.2104759781e-04 2.4833706191e-03 -7.6949833346e-22 ) 4.5221240563e-02 2.6151075658e-02 2.9999997573e+02 ( -1.2104759781e-04 2.4833706191e-03 -7.6949833346e-22 ) 4.7808718357e+02 ( -7.0166666665e-03 1.2666666630e-04 -4.0828835247e-22 ) 3.0695518755e+02 2.5474281838e+01 1.7377965853e-09 
0.00037          3.1333856354e-08 ( -1.2104759781e-04 2.4833706191e-03 -7.6949833346e-22 ) 8.7635186085e-04 ( -5.9849834457e-03 1.1593711206e-03 -6.1997116245e-23 ) 5.8412552149e-05 1.2169075922e-04 1.9429635865e-04 ( -7.4833333335e-03 2.4421312095e-03 1.9824240516e-21 ) 8.5353747438e-02 ( -1.2104759781e-04 2.4833706191e-03 -7.6949833346e-22 ) 4.5204410766e-02 2.6140789530e-02 2.9999997572e+02 ( -1.2104759781e-04 2.4833706191e-03 -7.6949833346e-22 ) 4.7839780895e+02 ( -7.0166666665e-03 1.2666666630e-04 -4.0828835247e-22 ) 3.0707107869e+02 2.5712729641e+01 1.7377965853e-09 
0.00038          3.0221318063e-08 ( -1.2104759781e-04 2.4833706191e-03 -7.6949833346e-22 ) 8.9860333685e-04 ( -6.0549789940e-03 1.1352419503e-03 -2.1788738086e-21 ) 6.0450389334e-05 1.2511722468e-04 1.9426590935e-04 ( -7.4833333335e-03 2.4421312095e-03 1.9824240516e-21 ) 8.5327815375e-02 ( -1.2104759781e-04 2.4833706191e-03 -7.6949833346e-22 ) 4.5187910779e-02 2.6130697922e-02 2.9999997572e+02 ( -1.2104759781e-04 2.4833706191e-03 -7.6949833346e-22 ) 4.7869556961e+02 ( -7.0166666665e-03 1.2666666630e-04 -4.0828835247e-22 ) 3.0718535439e+02 2.5944812991e+01 1.7377965853e-09 
0.00039          2.9153589301e-08 ( -1.2104759781e-04 2.4833706191e-03 -7.6949833346e-22 ) 9.2053350990e-04 ( -6.0549789940e-03 1.1352419503e-03 -2.1788738086e-21 ) 6.2497563566e-05 1.2853464978e-04 1.9423507584e-04 ( -7.4833333335e-03 2.4421312095e-03 1.9824240516e-21 ) 8.5301633128e-02 ( -1.2104759781e-04 2.4833706191e-03 -7.6949833346e-22 ) 4.5171243562e-02 2.6120515194e-02 2.9999997571e+02 ( -1.2104759781e-04 2.4833706191e-03 -7.6949833346e-22 ) 4.7898133113e+02 ( -7.0166666665e-03 1.2666666630e-04 -4.0828835247e-22 ) 3.0729807832e+02 2.6170839955e+01 1.7377965853e-09 
0.0004           2.8129548911e-08 ( -1.2104759781e-04 2.4833706191e-03 -7.6949833346e-22 ) 9.4241944434e-04 ( -6.1249744941e-03 1.1111147790e-03 -1.7780733748e-21 ) 6.4554292272e-05 1.3194371488e-04 1.9420375693e-04 ( -7.4833333335e-03 2.4421312095e-03 1.9824240516e-21 ) 8.5275739745e-02 ( -1.2104759781e-04 2.4833706191e-03 -7.6949833346e-22 ) 4.5154739527e-02 2.6110459461e-02 2.9999997571e+02 ( -1.2104759781e-04 2.4833706191e-03 -7.6949833346e-22 ) 4.7925588018e+02 ( -7.0166666665e-03 7.7777776770e-05 -2.0322355277e-22 ) 3.0740931038e+02 2.6391097375e+01 1.7377965853e-09 
0.00041          2.7147817356e-08 ( -1.2104759781e-04 2.4833706191e-03 -7.6949833346e-22 ) 9.6401171440e-04 ( -6.1249744941e-03 1.1111147790e-03 -1.7780733748e-21 ) 6.6619217019e-05 1.3534496310e-04 1.9417796081e-04 ( -7.4833333335e-03 2.4421312095e-03 1.9824240516e-21 ) 8.5250902671e-02 ( -1.2104759781e-04 2.4833706191e-03 -7.6949833346e-22 ) 4.5138966992e-02 2.6100754184e-02 2.9999997570e+02 ( -1.2104759781e-04 2.4833706191e-03 -7.6949833346e-22 ) 4.7951993277e+02 ( -7.0166666665e-03 7.7777776770e-05 -2.0322355277e-22 ) 3.0751910697e+02 2.6605853674e+01 1.7377965853e-09 
0.00042          2.6204472740e-08 ( -1.2104759781e-04 2.4833706191e-03 -7.6949833346e-22 ) 9.8532104950e-04 ( -6.1949699353e-03 1.0869897424e-03 -2.8221159163e-21 ) 6.8692673461e-05 1.3873748401e-04 1.9414627067e-04 ( -7.4833333335e-03 2.4421312095e-03 1.9824240516e-21 ) 8.5225946157e-02 ( -1.2104759781e-04 2.4833706191e-03 -7.6949833346e-22 ) 4.5122919903e-02 2.6091156177e-02 2.9999997570e+02 ( -1.2104759781e-04 2.4833706191e-03 -7.6949833346e-22 ) 4.7977414138e+02 ( -7.0166666665e-03 7.7777776770e-05 -2.0322355277e-22 ) 3.0762752127e+02 2.6815359313e+01 1.7377965853e-09 
0.00043          2.5295311512e-08 ( -1.2104759781e-04 2.4833706191e-03 -7.6949833346e-22 ) 1.0065955893e-03 ( -6.1949699353e-03 1.0869897424e-03 -2.8221159163e-21 ) 7.0774411331e-05 1.4212246679e-04 1.9411853675e-04 ( -7.4833333335e-03 2.4421312095e-03 1.9824240516e-21 ) 8.5200672003e-02 ( -1.2104759781e-04 2.4833706191e-03 -7.6949833346e-22 ) 4.5106846747e-02 2.6081296662e-02 2.9999997569e+02 ( -1.2104759781e-04 2.4833706191e-03 -7.6949833346e-22 ) 4.8001910362e+02 ( -7.0166666665e-03 7.7777776770e-05 -2.0322355277e-22 ) 3.0773460345e+02 2.7019849832e+01 1.7377965853e-09 
0.00044          2.4418335686e-08 ( -1.2104759781e-04 2.4833706191e-03 -7.6949833346e-22 ) 1.0273545709e-03 ( -6.1949699353e-03 1.0869897424e-03 -2.8221159163e-21 ) 7.2863532811e-05 1.4549983941e-04 1.9409138042e-04 ( -7.4833333335e-03 2.4421312095e-03 1.9824240516e-21 ) 8.5175842227e-02 ( -1.2104759781e-04 2.4833706191e-03 -7.6949833346e-22 ) 4.5091061391e-02 2.6071608970e-02 2.9999997569e+02 ( -1.2104759781e-04 2.4833706191e-03 -7.6949833346e-22 ) 4.8025536742e+02 ( -7.0166666665e-03 7.7777776770e-05 -2.0322355277e-22 ) 3.0784040097e+02 2.7219545387e+01 1.7377965853e-09 
0.00045          2.3571861183e-08 ( -1.2104759781e-04 2.4833706191e-03 -7.6949833346e-22 ) 1.0480114007e-03 ( -6.2649653063e-03 1.0628669888e-03 -1.6080110437e-21 ) 7.4960575981e-05 1.4887035112e-04 1.9406393562e-04 ( -7.4833333335e-03 2.4421312095e-03 1.9824240516e-21 ) 8.5151519908e-02 ( -1.2104759781e-04 2.4833706191e-03 -7.6949833346e-22 ) 4.5075536275e-02 2.6062150964e-02 2.9999997569e+02 ( -1.2104759781e-04 2.4833706191e-03 -7.6949833346e-22 ) 4.8048343625e+02 ( -7.0166666665e-03 7.7777776770e-05 -2.0322355277e-22 ) 3.0794495870e+02 2.7414653016e+01 1.7377965853e-09 
0.00046          2.2755461109e-08 ( -1.2104759781e-04 2.4833706191e-03 -7.6949833346e-22 ) 1.0685015006e-03 ( -6.2649653063e-03 1.0628669888e-03 -1.6080110437e-21 ) 7.7064915624e-05 1.5223424699e-04 1.9403747657e-04 ( -7.4833333335e-03 2.4421312095e-03 1.9824240516e-21 ) 8.5126663387e-02 ( -1.2104759781e-04 2.4833706191e-03 -7.6949833346e-22 ) 4.5059753802e-02 2.6052437561e-02 2.9999997568e+02 ( -1.2104759781e-04 2.4833706191e-03 -7.6949833346e-22 ) 4.8070377435e+02 ( -7.0166666665e-03 3.3333333333e-05 -7.1519427578e-23 ) 3.0804831915e+02 2.7605367810e+01 1.7377965853e-09 
0.00047          2.1967031444e-08 ( -1.2104759781e-04 2.4833706191e-03 -7.6949833346e-22 ) 1.0884761352e-03 ( -6.2649653063e-03 1.0628669888e-03 -1.6080110437e-21 ) 7.9176043245e-05 1.5559213513e-04 1.9401149346e-04 ( -7.4833333335e-03 2.4421312095e-03 1.9824240516e-21 ) 8.5101432017e-02 ( -1.2104759781e-04 2.4833706191e-03 -7.6949833346e-22 ) 4.5043769116e-02 2.6042551593e-02 2.9999997568e+02 ( -1.2104759781e-04 2.4833706191e-03 -7.6949833346e-22 ) 4.8091680885e+02 ( -7.0166666665e-03 3.3333333333e-05 -7.1519427578e-23 ) 3.0815052260e+02 2.7791872910e+01 1.7377965853e-09 
0.00048          2.1205754875e-08 ( -1.2104759781e-04 2.4833706191e-03 -7.6949833346e-22 ) 1.1079858801e-03 ( -6.3349605952e-03 1.0387466804e-03 -1.7914891964e-21 ) 8.1294002693e-05 1.5894338295e-04 1.9398553703e-04 ( -7.4833333335e-03 2.4421312095e-03 1.9824240516e-21 ) 8.5077029358e-02 ( -1.2104759781e-04 2.4833706191e-03 -7.6949833346e-22 ) 4.5028257039e-02 2.6033020600e-02 2.9999997567e+02 ( -1.2104759781e-04 2.4833706191e-03 -7.6949833346e-22 ) 4.8112293483e+02 ( -7.0166666665e-03 3.3333333333e-05 -7.1519427578e-23 ) 3.0825160730e+02 2.7974340798e+01 1.7377965853e-09 
0.00049          2.0469701913e-08 ( -1.2104759781e-04 2.4833706191e-03 -7.6949833346e-22 ) 1.1277553931e-03 ( -6.3349605952e-03 1.0387466804e-03 -1.7914891964e-21 ) 8.3418075665e-05 1.6228876178e-04 1.9396128211e-04 ( -7.4833333335e-03 2.4421312095e-03 1.9824240516e-21 ) 8.5052981864e-02 ( -1.2104759781e-04 2.4833706191e-03 -7.6949833346e-22 ) 4.5012965065e-02 2.6023624142e-02 2.9999997567e+02 ( -1.2104759781e-04 2.4833706191e-03 -7.6949833346e-22 ) 4.8132251811e+02 ( -7.0166666665e-03 3.3333333333e-05 -7.1519427578e-23 ) 3.0835160957e+02 2.8152934264e+01 1.7377965853e-09 
0.0005           1.9757355292e-08 ( -1.2104759781e-04 2.4833706191e-03 -7.6949833346e-22 ) 1.1470134992e-03 ( -6.3349605952e-03 1.0387466804e-03 -1.7914891964e-21 ) 8.5547674496e-05 1.6562859748e-04 1.9393578141e-04 ( -7.4833333335e-03 2.4421312095e-03 1.9824240516e-21 ) 8.5028917358e-02 ( -1.2104759781e-04 2.4833706191e-03 -7.6949833346e-22 ) 4.4997644638e-02 2.6014238959e-02 2.9999997566e+02 ( -1.2104759781e-04 2.4833706191e-03 -7.6949833346e-22 ) 4.8151589795e+02 ( -7.0166666665e-03 3.3333333333e-05 -7.1519427578e-23 ) 3.0845056393e+02 2.8327807076e+01 1.7377965853e-09 
