# Time                 	nuTildamin             	at location            	nuTildamax             	at location            	nuTildamean            	nuTildastDev           	pmin                   	at location            	pmax                   	at location            	pmean                  	pstDev                 	Umin                   	at location            	Umax                   	at location            	Umean                  	UstDev                 
0.005                  5.3949894533102859e-05 ( -3.5571258323097521e-01 1.6163925938312954e-01 4.9583585545994249e-02 ) 4.1252941682871629e-02 ( 2.3009914117948655e+00 5.1479556222496161e-17 9.1349605674495044e-02 ) 5.1702623412319708e-03 5.8569224642626514e-03 -1.5610225655693803e+03 ( -8.4522910642433013e-01 1.7810756379611448e-01 3.6801213312263326e-03 ) 8.2497965957062138e+02 ( -1.0455388754481671e+00 5.9603127021427959e-03 1.7093722653395207e-01 ) -5.4324954929537013e+00 3.0474539711258050e+01 3.3424670431163767e-01 ( 1.1399259124582398e-03 -5.5350476536549058e-02 8.2656433317921621e-02 ) 5.9819287750922733e+01 ( -8.4555929095256466e-01 1.7948689371168083e-01 1.5798993300134959e-02 ) 3.5943507078490484e+01 1.6263223999712753e+00 
