# Time           	U.airmin         	at location      	U.airmax         	at location      	U.airmean        	U.airstDev       	pmin             	at location      	pmax             	at location      	pmean            	pstDev           	T.airmin         	at location      	T.airmax         	at location      	T.airmean        	T.airstDev       
0.00089355       2.6211527996e-03 ( 6.7472200523e-02 7.2039335184e-02 5.0000000000e-03 ) 1.7427587855e+00 ( -5.1205286635e-02 -1.6762873494e-03 5.0000000000e-03 ) 2.2354629124e-01 2.7750291570e-01 -3.5151563780e+03 ( -2.5735160372e-03 2.6129347332e-02 5.0000000000e-03 ) 3.1053048327e+03 ( -2.6241718394e-02 8.5906500432e-04 5.0000000000e-03 ) -7.9780737474e+01 1.0963671009e+03 2.9753494202e+02 ( -6.9570971813e-04 -2.1251734628e-02 5.0000000000e-03 ) 3.0252559277e+02 ( -2.1251734628e-02 -6.9570968627e-04 5.0000000000e-03 ) 3.0002697309e+02 1.0159546940e+00 
