# Time           	massFlux         	Umin             	Umax             	Umean            	UstDev           	pmin             	pmax             	pmean            	pstDev           
50 -0.2354 1.645030187 2.586260181 2.161370089 0.2849544634 -0.940913094 1.557894742 -0.3048722135 0.9630245738
