# Time           	Umin             	at location      	Umax             	at location      	Umean            	UstDev           	pmin             	at location      	pmax             	at location      	pmean            	pstDev           	Tmin             	at location      	Tmax             	at location      	Tmean            	TstDev           	totalVolume      
1.16794e-07      3.3950728864e-16 ( -1.4181915333e-03 1.4792965474e-03 2.3087233538e-21 ) 3.3290766451e+01 ( -7.0347775123e-03 7.2528156517e-04 0.0000000000e+00 ) 1.8624290214e-01 1.3234930708e+00 1.3780307526e+04 ( -6.9991374142e-03 3.3333444897e-05 1.3372720858e-22 ) 1.4145223506e+05 ( -3.4211365654e-03 1.2222590869e-04 1.8173193642e-22 ) 1.0002999684e+05 5.7424906251e+03 2.5973892699e+02 ( -6.9991374142e-03 3.3333444897e-05 1.3372720858e-22 ) 3.1765349868e+02 ( -3.4211406419e-03 1.7642690917e-03 3.7865221319e-21 ) 2.9999365139e+02 2.5444843306e+00 1.7377965854e-09 
