# Time         	Tmin           	at location    	Tmax           	at location    	Tmean          	TstDev         
1              3.00011201e+02 ( 1.38000000e-01 6.25000000e-03 5.00000000e-03 ) 3.00841019e+02 ( 1.02000000e-01 1.87500000e-02 5.00000000e-03 ) 3.00366735e+02 2.53983932e-01 
2              3.00005910e+02 ( 6.20000000e-02 6.25000000e-03 5.00000000e-03 ) 3.01491042e+02 ( 1.02000000e-01 1.87500000e-02 5.00000000e-03 ) 3.00634604e+02 4.47385463e-01 
3              2.99998448e+02 ( 6.20000000e-02 6.25000000e-03 5.00000000e-03 ) 3.01993170e+02 ( 1.02000000e-01 1.87500000e-02 5.00000000e-03 ) 3.00832651e+02 5.98652924e-01 
4              2.99993097e+02 ( 6.20000000e-02 6.25000000e-03 5.00000000e-03 ) 3.02382080e+02 ( 1.02000000e-01 1.87500000e-02 5.00000000e-03 ) 3.00980806e+02 7.18596257e-01 
5              2.99983220e+02 ( 6.20000000e-02 8.75000000e-03 5.00000000e-03 ) 3.02684728e+02 ( 1.02000000e-01 1.87500000e-02 5.00000000e-03 ) 3.01092899e+02 8.14503796e-01 
6              2.99977352e+02 ( 6.20000000e-02 8.75000000e-03 5.00000000e-03 ) 3.02921660e+02 ( 1.02000000e-01 1.87500000e-02 5.00000000e-03 ) 3.01178634e+02 8.91687140e-01 
7              2.99968582e+02 ( 6.20000000e-02 1.12500000e-02 5.00000000e-03 ) 3.03109442e+02 ( 1.06000000e-01 1.87500000e-02 5.00000000e-03 ) 3.01244898e+02 9.54160042e-01 
8              2.99963091e+02 ( 6.20000000e-02 1.12500000e-02 5.00000000e-03 ) 3.03260358e+02 ( 1.06000000e-01 1.87500000e-02 5.00000000e-03 ) 3.01296627e+02 1.00500372e+00 
9              2.99955380e+02 ( 6.20000000e-02 1.37500000e-02 5.00000000e-03 ) 3.03381407e+02 ( 1.06000000e-01 1.87500000e-02 5.00000000e-03 ) 3.01337395e+02 1.04660158e+00 
10             2.99949274e+02 ( 6.20000000e-02 1.37500000e-02 5.00000000e-03 ) 3.03479085e+02 ( 1.06000000e-01 1.87500000e-02 5.00000000e-03 ) 3.01369812e+02 1.08080656e+00 
11             2.99943993e+02 ( 6.20000000e-02 1.62500000e-02 5.00000000e-03 ) 3.03558340e+02 ( 1.06000000e-01 1.87500000e-02 5.00000000e-03 ) 3.01395807e+02 1.10906605e+00 
12             2.99936609e+02 ( 6.20000000e-02 1.62500000e-02 5.00000000e-03 ) 3.03622969e+02 ( 1.06000000e-01 1.87500000e-02 5.00000000e-03 ) 3.01416812e+02 1.13251649e+00 
13             2.99931228e+02 ( 6.20000000e-02 1.62500000e-02 5.00000000e-03 ) 3.03675903e+02 ( 1.06000000e-01 1.87500000e-02 5.00000000e-03 ) 3.01433907e+02 1.15205514e+00 
14             2.99927406e+02 ( 6.20000000e-02 1.62500000e-02 5.00000000e-03 ) 3.03719956e+02 ( 1.10000000e-01 1.87500000e-02 5.00000000e-03 ) 3.01447909e+02 1.16839472e+00 
15             2.99923131e+02 ( 6.20000000e-02 1.87500000e-02 5.00000000e-03 ) 3.03757539e+02 ( 1.10000000e-01 1.87500000e-02 5.00000000e-03 ) 3.01459444e+02 1.18210484e+00 
16             2.99918078e+02 ( 6.20000000e-02 1.87500000e-02 5.00000000e-03 ) 3.03788706e+02 ( 1.10000000e-01 1.87500000e-02 5.00000000e-03 ) 3.01468998e+02 1.19364351e+00 
17             2.99914331e+02 ( 6.20000000e-02 1.87500000e-02 5.00000000e-03 ) 3.03814509e+02 ( 1.10000000e-01 1.87500000e-02 5.00000000e-03 ) 3.01476905e+02 1.20335510e+00 
18             2.99911629e+02 ( 6.20000000e-02 1.87500000e-02 5.00000000e-03 ) 3.03835996e+02 ( 1.10000000e-01 1.87500000e-02 5.00000000e-03 ) 3.01483527e+02 1.21157888e+00 
19             2.99909749e+02 ( 6.20000000e-02 1.87500000e-02 5.00000000e-03 ) 3.03853898e+02 ( 1.10000000e-01 1.87500000e-02 5.00000000e-03 ) 3.01489089e+02 1.21855672e+00 
20             2.99908511e+02 ( 6.20000000e-02 1.87500000e-02 5.00000000e-03 ) 3.03868814e+02 ( 1.10000000e-01 1.87500000e-02 5.00000000e-03 ) 3.01493775e+02 1.22448857e+00 
21             2.99907769e+02 ( 6.20000000e-02 1.87500000e-02 5.00000000e-03 ) 3.03881239e+02 ( 1.10000000e-01 1.87500000e-02 5.00000000e-03 ) 3.01497733e+02 1.22954012e+00 
22             2.99907404e+02 ( 6.20000000e-02 1.87500000e-02 5.00000000e-03 ) 3.03891582e+02 ( 1.10000000e-01 1.87500000e-02 5.00000000e-03 ) 3.01501084e+02 1.23384909e+00 
23             2.99907324e+02 ( 6.20000000e-02 1.87500000e-02 5.00000000e-03 ) 3.03900180e+02 ( 1.10000000e-01 1.87500000e-02 5.00000000e-03 ) 3.01503929e+02 1.23753024e+00 
24             2.99907454e+02 ( 6.20000000e-02 1.87500000e-02 5.00000000e-03 ) 3.03907316e+02 ( 1.10000000e-01 1.87500000e-02 5.00000000e-03 ) 3.01506348e+02 1.24067955e+00 
25             2.99907735e+02 ( 6.20000000e-02 1.87500000e-02 5.00000000e-03 ) 3.03913749e+02 ( 1.14000000e-01 1.87500000e-02 5.00000000e-03 ) 3.01508409e+02 1.24337746e+00 
26             2.99908122e+02 ( 6.20000000e-02 1.87500000e-02 5.00000000e-03 ) 3.03919508e+02 ( 1.14000000e-01 1.87500000e-02 5.00000000e-03 ) 3.01510168e+02 1.24569161e+00 
27             2.99908579e+02 ( 6.20000000e-02 1.87500000e-02 5.00000000e-03 ) 3.03924320e+02 ( 1.14000000e-01 1.87500000e-02 5.00000000e-03 ) 3.01511672e+02 1.24767895e+00 
28             2.99909078e+02 ( 6.20000000e-02 1.87500000e-02 5.00000000e-03 ) 3.03928333e+02 ( 1.14000000e-01 1.87500000e-02 5.00000000e-03 ) 3.01512960e+02 1.24938760e+00 
29             2.99909598e+02 ( 6.20000000e-02 1.87500000e-02 5.00000000e-03 ) 3.03931670e+02 ( 1.14000000e-01 1.87500000e-02 5.00000000e-03 ) 3.01514064e+02 1.25085825e+00 
30             2.99910124e+02 ( 6.20000000e-02 1.87500000e-02 5.00000000e-03 ) 3.03934436e+02 ( 1.14000000e-01 1.87500000e-02 5.00000000e-03 ) 3.01515012e+02 1.25212537e+00 
31             2.99910644e+02 ( 6.20000000e-02 1.87500000e-02 5.00000000e-03 ) 3.03936720e+02 ( 1.14000000e-01 1.87500000e-02 5.00000000e-03 ) 3.01515826e+02 1.25321826e+00 
32             2.99911150e+02 ( 6.20000000e-02 1.87500000e-02 5.00000000e-03 ) 3.03938596e+02 ( 1.14000000e-01 1.87500000e-02 5.00000000e-03 ) 3.01516528e+02 1.25416179e+00 
33             2.99911635e+02 ( 6.20000000e-02 1.87500000e-02 5.00000000e-03 ) 3.03940128e+02 ( 1.14000000e-01 1.87500000e-02 5.00000000e-03 ) 3.01517132e+02 1.25497717e+00 
34             2.99912096e+02 ( 6.20000000e-02 1.87500000e-02 5.00000000e-03 ) 3.03941371e+02 ( 1.14000000e-01 1.87500000e-02 5.00000000e-03 ) 3.01517652e+02 1.25568246e+00 
35             2.99912530e+02 ( 6.20000000e-02 1.87500000e-02 5.00000000e-03 ) 3.03942370e+02 ( 1.14000000e-01 1.87500000e-02 5.00000000e-03 ) 3.01518102e+02 1.25629308e+00 
36             2.99912937e+02 ( 6.20000000e-02 1.87500000e-02 5.00000000e-03 ) 3.03943164e+02 ( 1.14000000e-01 1.87500000e-02 5.00000000e-03 ) 3.01518491e+02 1.25682222e+00 
37             2.99913315e+02 ( 6.20000000e-02 1.87500000e-02 5.00000000e-03 ) 3.03943787e+02 ( 1.14000000e-01 1.87500000e-02 5.00000000e-03 ) 3.01518827e+02 1.25728115e+00 
38             2.99913665e+02 ( 6.20000000e-02 1.87500000e-02 5.00000000e-03 ) 3.03944266e+02 ( 1.14000000e-01 1.87500000e-02 5.00000000e-03 ) 3.01519118e+02 1.25767953e+00 
39             2.99913988e+02 ( 6.20000000e-02 1.87500000e-02 5.00000000e-03 ) 3.03944625e+02 ( 1.14000000e-01 1.87500000e-02 5.00000000e-03 ) 3.01519370e+02 1.25802565e+00 
40             2.99914285e+02 ( 6.20000000e-02 1.87500000e-02 5.00000000e-03 ) 3.03944885e+02 ( 1.14000000e-01 1.87500000e-02 5.00000000e-03 ) 3.01519589e+02 1.25832662e+00 
41             2.99914557e+02 ( 6.20000000e-02 1.87500000e-02 5.00000000e-03 ) 3.03945063e+02 ( 1.14000000e-01 1.87500000e-02 5.00000000e-03 ) 3.01519779e+02 1.25858855e+00 
42             2.99914805e+02 ( 6.20000000e-02 1.87500000e-02 5.00000000e-03 ) 3.03945173e+02 ( 1.14000000e-01 1.87500000e-02 5.00000000e-03 ) 3.01519944e+02 1.25881668e+00 
43             2.99915032e+02 ( 6.20000000e-02 1.87500000e-02 5.00000000e-03 ) 3.03945227e+02 ( 1.14000000e-01 1.87500000e-02 5.00000000e-03 ) 3.01520088e+02 1.25901553e+00 
44             2.99915238e+02 ( 6.20000000e-02 1.87500000e-02 5.00000000e-03 ) 3.03945236e+02 ( 1.14000000e-01 1.87500000e-02 5.00000000e-03 ) 3.01520213e+02 1.25918901e+00 
45             2.99915425e+02 ( 6.20000000e-02 1.87500000e-02 5.00000000e-03 ) 3.03945208e+02 ( 1.14000000e-01 1.87500000e-02 5.00000000e-03 ) 3.01520322e+02 1.25934047e+00 
46             2.99915595e+02 ( 6.20000000e-02 1.87500000e-02 5.00000000e-03 ) 3.03945151e+02 ( 1.14000000e-01 1.87500000e-02 5.00000000e-03 ) 3.01520417e+02 1.25947281e+00 
47             2.99915749e+02 ( 6.20000000e-02 1.87500000e-02 5.00000000e-03 ) 3.03945072e+02 ( 1.14000000e-01 1.87500000e-02 5.00000000e-03 ) 3.01520500e+02 1.25958853e+00 
48             2.99915888e+02 ( 6.20000000e-02 1.87500000e-02 5.00000000e-03 ) 3.03944975e+02 ( 1.14000000e-01 1.87500000e-02 5.00000000e-03 ) 3.01520572e+02 1.25968980e+00 
49             2.99916013e+02 ( 6.20000000e-02 1.87500000e-02 5.00000000e-03 ) 3.03944862e+02 ( 1.14000000e-01 1.87500000e-02 5.00000000e-03 ) 3.01520634e+02 1.25977757e+00 
50             2.99916127e+02 ( 6.20000000e-02 1.87500000e-02 5.00000000e-03 ) 3.03944740e+02 ( 1.14000000e-01 1.87500000e-02 5.00000000e-03 ) 3.01520689e+02 1.25985478e+00 
