# Time       	Tmin         	at location  	Tmax         	at location  	Tmean        	TstDev       	Umin         	at location  	Umax         	at location  	Umean        	UstDev       	pmin         	at location  	pmax         	at location  	pmean        	pstDev       
0.0478797    2.947500e+02 ( -2.366299e-01 2.500000e-02 5.597929e-03 ) 3.028744e+02 ( 3.079238e-02 2.500000e-03 2.746151e-02 ) 2.947518e+02 1.146579e-01 2.267485e-07 ( -5.645041e-01 2.550000e-01 -1.363717e-01 ) 5.592161e-02 ( -1.030670e-01 2.925000e-01 -2.582627e-02 ) 4.391858e-04 2.292093e-03 -6.919937e+00 ( -5.880251e-01 5.913780e-01 1.951055e-01 ) -2.821907e-02 ( 5.383790e-02 2.500000e-03 -3.066756e-03 ) -3.042071e+00 1.876953e+00 
