# Time           	Umin             	at location      	Umax             	at location      	Umean            	UstDev           	pmin             	at location      	pmax             	at location      	pmean            	pstDev           	alpha.watermin   	at location      	alpha.watermax   	at location      	alpha.watermean  	alpha.waterstDev 	totalVolume      
0.00543562       0.0000000000e+00 ( 2.7890017006e-02 1.7734941769e-01 5.0000000000e-04 ) 4.7782118545e-02 ( 2.8006681191e-02 1.9337204376e-01 5.0000000000e-04 ) 1.3565315328e-03 3.1232632852e-03 0.0000000000e+00 ( 2.7890017006e-02 1.7734941769e-01 5.0000000000e-04 ) 9.7811064737e+02 ( 9.9458333335e-02 5.6250000000e-04 5.0000000000e-04 ) 2.0587734111e+02 3.0389019174e+02 -1.9896655466e-24 ( 1.9583333335e-03 1.0068750000e-01 5.0000000000e-04 ) 1.0000000000e+00 ( -1.2125000000e-02 5.6250000000e-04 5.0000000000e-04 ) 4.1718742070e-01 4.9309397800e-01 3.1200000000e-05 
