# Force      
# CofR       : ( 0.000000e+00 0.000000e+00 0.000000e+00 )
#            
# Time       	(total_x total_y total_z)	(pressure_x pressure_y pressure_z)	(viscous_x viscous_y viscous_z)
0.0005       	( -1.960997e-01 4.608800e+02 5.278209e-01 )	( -1.937480e-01 4.723950e+02 5.290017e-01 )	( -2.351662e-03 -1.151498e+01 -1.180805e-03 )
