# Moment     
# CofR       : ( 0.000000e+00 0.000000e+00 0.000000e+00 )
#            
# Time       	(total_x total_y total_z)	(pressure_x pressure_y pressure_z)	(viscous_x viscous_y viscous_z)
0.0005       	( 1.121505e-02 -2.764020e+01 1.997531e-02 )	( 1.119441e-02 -2.620600e+01 1.992288e-02 )	( 2.063925e-05 -1.434203e+00 5.243084e-05 )
