# Time       	Tmin         	at location  	Tmax         	at location  	Tmean        	TstDev       	Umin         	at location  	Umax         	at location  	Umean        	UstDev       	pmin         	at location  	pmax         	at location  	pmean        	pstDev       
0.0453089    2.980000e+02 ( 4.500000e-01 8.750000e-01 5.000000e-02 ) 4.505347e+02 ( 1.500000e-01 5.250000e-01 5.000000e-02 ) 2.995430e+02 1.517255e+01 1.222667e-05 ( 6.500000e-01 3.250000e-01 1.350000e+00 ) 4.760765e-02 ( 5.000000e-02 2.500000e-02 5.000000e-02 ) 2.188529e-03 4.816816e-03 -2.253968e+01 ( 1.500000e-01 5.250000e-01 1.950000e+00 ) -5.751033e-01 ( 7.500000e-01 4.750000e-01 5.000000e-02 ) -1.155029e+01 6.662684e+00 
