# Time       	massFlux     	CH4min       	CH4max       	CH4mean      	CH4stDev     
0.00120482 -1.00328e-05 0.5 0.5 0.5 0
0.00265769 -5.09509e-05 0.5 0.5 0.5 0
0.00439595 -0.000197486 0.5 0.5 0.5 0
0.00647429 -6.94806e-05 0.5 0.5 0.5 0
0.0089355 0.00631707 0.5 0.5 0.5 3.36495e-16
