# Wall heat-flux 
# Time           	patch            	min              	max              	integral         
1.0000000000e+00	coolingDuct	-1.8893080812e+01	7.4234360972e+00	-1.8914149008e-02
1.0000000000e+00	coolingDuct_slave	-4.5098443311e+00	3.3268744979e+00	6.7212835824e-02
1.0000000000e+00	inlet_slave	-2.0328790734e-20	1.0164395367e-20	-1.0484922544e-24
1.0000000000e+00	default_to_pad1	-4.7805297102e+04	-9.6553671086e+03	-2.9525295290e+02
1.0000000000e+00	default_to_disk	-7.2849547359e+03	-7.5567543897e+02	-7.9634357657e+02
1.0000000000e+00	default_to_pad2	-5.8052951021e+04	-9.2137377595e+03	-3.1191957464e+02
2.0000000000e+00	coolingDuct	-7.9418498788e+00	7.1184807221e+00	7.6906762739e-02
2.0000000000e+00	coolingDuct_slave	2.0880093266e-02	4.5758672351e+00	1.1352821677e-01
2.0000000000e+00	inlet_slave	-3.3881317890e-20	1.1434944788e-20	-3.6871923595e-24
2.0000000000e+00	default_to_pad1	-2.5432035406e+04	-4.6346304631e+03	-1.5182356985e+02
2.0000000000e+00	default_to_disk	-8.8562807839e+03	5.3645770940e+01	-1.1320311711e+03
2.0000000000e+00	default_to_pad2	-2.9775371393e+04	-3.1236938711e+03	-1.5672592264e+02
3.0000000000e+00	coolingDuct	-1.2145590505e+00	3.3073711957e+00	8.2940271592e-02
3.0000000000e+00	coolingDuct_slave	-1.0035270200e+01	7.0859024883e+00	9.0286558611e-02
3.0000000000e+00	inlet_slave	-8.4703294725e-21	3.3881317890e-21	-3.0974076826e-25
3.0000000000e+00	default_to_pad1	-2.4588748027e+04	-4.0880649994e+03	-1.4669231442e+02
3.0000000000e+00	default_to_disk	-1.2591929532e+04	2.1099827341e+03	-1.5090198948e+03
3.0000000000e+00	default_to_pad2	-2.9817603186e+04	-2.4710331281e+03	-1.5384494069e+02
4.0000000000e+00	coolingDuct	-2.9738392012e+00	4.7007723434e+00	6.9590207683e-02
4.0000000000e+00	coolingDuct_slave	-2.0685161760e+00	3.1790003904e+01	1.1581647075e-01
4.0000000000e+00	inlet_slave	-7.4115382885e-21	8.4703294725e-22	-5.9431249047e-25
4.0000000000e+00	default_to_pad1	-2.3116184148e+04	-4.1573484776e+03	-1.5277892589e+02
4.0000000000e+00	default_to_disk	-1.4986829163e+04	4.3664049162e+03	-1.7485337768e+03
4.0000000000e+00	default_to_pad2	-2.9015229198e+04	-2.6398237948e+03	-1.5823926525e+02
5.0000000000e+00	coolingDuct	-3.8761629598e+00	5.3715550176e+00	5.4726823705e-02
5.0000000000e+00	coolingDuct_slave	-3.2986984965e-01	5.2096718637e+00	1.2603271153e-01
5.0000000000e+00	inlet_slave	-1.3552527156e-20	5.0821976835e-21	-3.9128660228e-25
5.0000000000e+00	default_to_pad1	-2.1092324351e+04	-4.2186980760e+03	-1.5913482058e+02
5.0000000000e+00	default_to_disk	-1.7684774537e+04	6.4719941205e+03	-1.8733705640e+03
5.0000000000e+00	default_to_pad2	-2.7563376005e+04	-3.0305354193e+03	-1.6098134560e+02
6.0000000000e+00	coolingDuct	-3.5256076993e+00	1.1550772470e+01	5.0974599953e-02
6.0000000000e+00	coolingDuct_slave	5.4271215643e-01	8.4587988569e+00	1.5195241808e-01
6.0000000000e+00	inlet_slave	-7.1997800517e-21	1.3552527156e-20	1.7762865526e-24
6.0000000000e+00	default_to_pad1	-2.2287465776e+04	-4.1825747449e+03	-1.6431348021e+02
6.0000000000e+00	default_to_disk	-2.0474239551e+04	8.5566191525e+03	-1.9247656293e+03
6.0000000000e+00	default_to_pad2	-2.4996577425e+04	-3.4317830983e+03	-1.6036025590e+02
7.0000000000e+00	coolingDuct	-3.1595158785e+00	6.8142363843e+00	7.0548762784e-02
7.0000000000e+00	coolingDuct_slave	-9.9077120305e+00	8.4749749788e+00	1.8102706041e-01
7.0000000000e+00	inlet_slave	-4.0657581468e-20	5.9292306308e-21	-5.3182246217e-24
7.0000000000e+00	default_to_pad1	-2.4558797487e+04	-4.0277294795e+03	-1.6980477963e+02
7.0000000000e+00	default_to_disk	-2.2031367670e+04	1.0487814483e+04	-1.9353873068e+03
7.0000000000e+00	default_to_pad2	-2.4580287738e+04	-3.8955521203e+03	-1.5887277485e+02
8.0000000000e+00	coolingDuct	-2.5523646593e+00	7.2070123412e+00	8.1679796995e-02
8.0000000000e+00	coolingDuct_slave	1.0724809863e-01	6.7141344296e+00	2.2188437433e-01
8.0000000000e+00	inlet_slave	-1.3552527156e-20	5.4210108624e-20	1.0847426036e-24
8.0000000000e+00	default_to_pad1	-2.7075525744e+04	-3.7718054374e+03	-1.7589782284e+02
8.0000000000e+00	default_to_disk	-2.2550567650e+04	1.1908669117e+04	-1.9249570916e+03
8.0000000000e+00	default_to_pad2	-2.4054105563e+04	-4.2772654518e+03	-1.6098666179e+02
9.0000000000e+00	coolingDuct	-1.5644748283e+00	9.6735421953e+00	8.3926914758e-02
9.0000000000e+00	coolingDuct_slave	1.1244198803e+00	7.3409621926e+00	2.6841400881e-01
9.0000000000e+00	inlet_slave	-1.0842021725e-19	1.0842021725e-19	5.5601283282e-24
9.0000000000e+00	default_to_pad1	-3.0100261798e+04	-3.4791149455e+03	-1.8316802391e+02
9.0000000000e+00	default_to_disk	-2.2275795007e+04	1.2515389273e+04	-1.9053832534e+03
9.0000000000e+00	default_to_pad2	-2.3498090887e+04	-4.1630334317e+03	-1.6278700100e+02
1.0000000000e+01	coolingDuct	-3.4427196804e+01	9.7701324017e+01	4.2110178666e-03
1.0000000000e+01	coolingDuct_slave	-2.9161459001e+02	3.8227808281e+02	1.9605828345e+00
1.0000000000e+01	inlet_slave	-1.0842021725e-19	1.0842021725e-19	5.1694717055e-24
1.0000000000e+01	default_to_pad1	-4.1574092103e+04	-1.5777499626e+04	-4.3733464951e+02
1.0000000000e+01	default_to_disk	-2.2569242135e+04	1.4581946114e+04	-2.1867304961e+03
1.0000000000e+01	default_to_pad2	-3.4016274896e+04	-1.5081585285e+04	-4.1502853178e+02
1.1000000000e+01	coolingDuct	-7.2584236735e-01	9.8168796608e+01	2.6443170412e-01
1.1000000000e+01	coolingDuct_slave	-1.1780612698e+02	2.7654605898e+02	1.9496585381e+00
1.1000000000e+01	inlet_slave	-3.3881317890e-21	5.4210108624e-20	1.0854264726e-23
1.1000000000e+01	default_to_pad1	-4.4192589854e+04	-1.4763857942e+04	-4.4595822901e+02
1.1000000000e+01	default_to_disk	-2.1905538111e+04	1.2979003136e+04	-2.1781720459e+03
1.1000000000e+01	default_to_pad2	-3.3449865497e+04	-1.5100201147e+04	-4.1650193325e+02
1.2000000000e+01	coolingDuct	-1.1620523260e+01	1.0123228612e+02	3.6617186830e-01
1.2000000000e+01	coolingDuct_slave	-1.5807921546e+02	2.0280016119e+02	1.9770239509e+00
1.2000000000e+01	inlet_slave	-1.0842021725e-19	1.0842021725e-19	-2.5772179390e-23
1.2000000000e+01	default_to_pad1	-4.6093771820e+04	-1.5734751831e+04	-4.5431176721e+02
1.2000000000e+01	default_to_disk	-2.1316348610e+04	1.1214839729e+04	-2.1700977620e+03
1.2000000000e+01	default_to_pad2	-3.2860360180e+04	-1.5247303930e+04	-4.1771077384e+02
1.3000000000e+01	coolingDuct	-1.6288880470e+02	9.0176484765e+01	2.1692968096e-01
1.3000000000e+01	coolingDuct_slave	-2.0746536083e+01	2.9754335487e+02	2.0013970664e+00
1.3000000000e+01	inlet_slave	-1.0842021725e-19	1.0842021725e-19	-3.9936148803e-24
1.3000000000e+01	default_to_pad1	-4.7008788152e+04	-1.5635101517e+04	-4.6255406344e+02
1.3000000000e+01	default_to_disk	-2.0880888927e+04	1.0778119771e+04	-2.1614388605e+03
1.3000000000e+01	default_to_pad2	-3.2252176278e+04	-1.5398612108e+04	-4.1863552326e+02
1.4000000000e+01	coolingDuct	-1.5312227817e+01	8.5752953101e+01	1.6879624349e-01
1.4000000000e+01	coolingDuct_slave	3.2422924118e+00	2.3144489719e+02	2.0573027208e+00
1.4000000000e+01	inlet_slave	-1.0842021725e-19	1.0842021725e-19	1.8705988648e-24
1.4000000000e+01	default_to_pad1	-4.6986135121e+04	-1.5395028220e+04	-4.7240835770e+02
1.4000000000e+01	default_to_disk	-2.0522139408e+04	1.1093066292e+04	-2.1505527107e+03
1.4000000000e+01	default_to_pad2	-3.1635097167e+04	-1.5537531522e+04	-4.1920081536e+02
1.5000000000e+01	coolingDuct	-2.5774668619e+01	8.2721093570e+01	1.0215902614e-01
1.5000000000e+01	coolingDuct_slave	2.6772924021e+00	1.8041423265e+02	2.1177705580e+00
1.5000000000e+01	inlet_slave	-3.3881317890e-20	1.0842021725e-19	1.8579862240e-23
1.5000000000e+01	default_to_pad1	-4.6471556130e+04	-1.4976106308e+04	-4.8312183440e+02
1.5000000000e+01	default_to_disk	-2.0261917940e+04	1.0505568350e+04	-2.1429331458e+03
1.5000000000e+01	default_to_pad2	-3.1070445167e+04	-1.5676253132e+04	-4.1952651040e+02
1.6000000000e+01	coolingDuct	-4.4438662649e+01	8.2546693479e+01	8.9502059086e-02
1.6000000000e+01	coolingDuct_slave	1.2959435052e+00	2.2132951315e+02	2.1858177420e+00
1.6000000000e+01	inlet_slave	-1.0842021725e-19	6.4374503991e-20	-4.0926476071e-24
1.6000000000e+01	default_to_pad1	-4.6089576426e+04	-1.4706271626e+04	-4.9303175070e+02
1.6000000000e+01	default_to_disk	-2.0030048619e+04	9.6396649439e+03	-2.1348952170e+03
1.6000000000e+01	default_to_pad2	-3.0615512208e+04	-1.5799901097e+04	-4.1937509196e+02
1.7000000000e+01	coolingDuct	-1.4708946069e+01	8.4031768254e+01	1.2796273639e-01
1.7000000000e+01	coolingDuct_slave	-2.8131831200e-01	1.7457602964e+02	2.2044967945e+00
1.7000000000e+01	inlet_slave	-4.2351647363e-20	3.7269449679e-20	1.7468583313e-24
1.7000000000e+01	default_to_pad1	-4.6399570140e+04	-1.4963628165e+04	-5.0198623928e+02
1.7000000000e+01	default_to_disk	-1.9828286833e+04	9.1424741291e+03	-2.1284987794e+03
1.7000000000e+01	default_to_pad2	-3.0213136131e+04	-1.5805706194e+04	-4.1891117119e+02
1.8000000000e+01	coolingDuct	-2.9400071631e+00	8.6345366463e+01	1.7383636661e-01
1.8000000000e+01	coolingDuct_slave	-1.4261574088e+00	1.8540290826e+02	2.1912886215e+00
1.8000000000e+01	inlet_slave	-2.0328790734e-20	5.4210108624e-20	1.6900696913e-24
1.8000000000e+01	default_to_pad1	-4.6835360642e+04	-1.4504824511e+04	-5.1041183473e+02
1.8000000000e+01	default_to_disk	-1.9667377227e+04	8.7363361934e+03	-2.1247871316e+03
1.8000000000e+01	default_to_pad2	-2.9862551063e+04	-1.5686805146e+04	-4.1798197302e+02
1.9000000000e+01	coolingDuct	-1.6220631123e+00	8.8952040215e+01	1.9899982279e-01
1.9000000000e+01	coolingDuct_slave	-2.1561181038e+00	1.9313398312e+02	2.1683849972e+00
1.9000000000e+01	inlet_slave	-1.0164395367e-20	5.4210108624e-20	5.9466264404e-24
1.9000000000e+01	default_to_pad1	-4.7025463024e+04	-1.4613371937e+04	-5.1848305841e+02
1.9000000000e+01	default_to_disk	-1.9533908071e+04	8.0905172394e+03	-2.1224571444e+03
1.9000000000e+01	default_to_pad2	-2.9523673800e+04	-1.5601816001e+04	-4.1684264627e+02
2.0000000000e+01	coolingDuct	-7.5674570849e+00	1.2529334170e+01	5.1307325043e-03
2.0000000000e+01	coolingDuct_slave	-5.3323954848e+01	1.8956859248e+01	-5.6002736642e-02
2.0000000000e+01	inlet_slave	-2.7105054312e-20	4.0657581468e-20	1.3029369469e-24
2.0000000000e+01	default_to_pad1	-4.4158442871e+04	-1.3660237663e+04	-4.9218088474e+02
2.0000000000e+01	default_to_disk	-1.9339031034e+04	6.9385598839e+03	-2.0997125366e+03
2.0000000000e+01	default_to_pad2	-2.9153287414e+04	-1.5219790982e+04	-4.0994672253e+02
2.1000000000e+01	coolingDuct	-1.7305666790e+01	5.8258502597e+00	-1.2860615710e-02
2.1000000000e+01	coolingDuct_slave	-2.9422583977e+01	6.4959272895e+01	-4.8083232799e-02
2.1000000000e+01	inlet_slave	-5.0821976835e-21	6.7762635780e-21	-3.2213360379e-26
2.1000000000e+01	default_to_pad1	-4.3920309124e+04	-1.3446448652e+04	-4.9744019352e+02
2.1000000000e+01	default_to_disk	-1.9200469431e+04	5.6426309628e+03	-2.0958536412e+03
2.1000000000e+01	default_to_pad2	-2.8996307741e+04	-1.5076553590e+04	-4.0884044800e+02
2.2000000000e+01	coolingDuct	-2.1073010349e+01	5.1010549759e+00	-3.1575240254e-02
2.2000000000e+01	coolingDuct_slave	-2.9673406468e+01	2.2680280348e+01	-3.9705554173e-02
2.2000000000e+01	inlet_slave	-1.3552527156e-20	2.7105054312e-20	1.1679229936e-24
2.2000000000e+01	default_to_pad1	-4.4123466415e+04	-1.3821759319e+04	-5.0177371922e+02
2.2000000000e+01	default_to_disk	-1.9059318906e+04	6.0148009695e+03	-2.0916077392e+03
2.2000000000e+01	default_to_pad2	-2.8875373524e+04	-1.5004185896e+04	-4.0773731887e+02
2.3000000000e+01	coolingDuct	-1.8996685529e+01	4.9973396622e+00	-4.4118598164e-02
2.3000000000e+01	coolingDuct_slave	-9.7138552467e+01	2.4067892998e+01	-1.6475513873e-02
2.3000000000e+01	inlet_slave	-6.7762635780e-21	2.7105054312e-20	1.1430900654e-24
2.3000000000e+01	default_to_pad1	-4.4832897012e+04	-1.3262053772e+04	-5.0505289487e+02
2.3000000000e+01	default_to_disk	-1.8942063183e+04	6.5740689436e+03	-2.0889258409e+03
2.3000000000e+01	default_to_pad2	-2.8792575036e+04	-1.5142715024e+04	-4.0669200226e+02
2.4000000000e+01	coolingDuct	-1.6599053030e+01	5.2419542990e+00	-4.5409478718e-02
2.4000000000e+01	coolingDuct_slave	-1.1232225630e+02	2.4655810393e+01	9.5473401924e-03
2.4000000000e+01	inlet_slave	-6.7762635780e-21	1.3552527156e-20	2.2428661729e-24
2.4000000000e+01	default_to_pad1	-4.5331940006e+04	-1.3543695791e+04	-5.0768612061e+02
2.4000000000e+01	default_to_disk	-1.8839252407e+04	7.1197265755e+03	-2.0850531317e+03
2.4000000000e+01	default_to_pad2	-2.8717381852e+04	-1.5501345317e+04	-4.0561812186e+02
2.5000000000e+01	coolingDuct	-1.4053383035e+01	5.5266414581e+00	-4.2165526092e-02
2.5000000000e+01	coolingDuct_slave	-2.1395672267e+01	5.1808147124e+01	2.9844209005e-02
2.5000000000e+01	inlet_slave	-4.2351647363e-21	1.3552527156e-20	5.6071275183e-25
2.5000000000e+01	default_to_pad1	-4.5655084017e+04	-1.3783935014e+04	-5.1012448094e+02
2.5000000000e+01	default_to_disk	-1.8780098627e+04	7.4551321939e+03	-2.0832391568e+03
2.5000000000e+01	default_to_pad2	-2.8659547915e+04	-1.6017399850e+04	-4.0465215107e+02
2.6000000000e+01	coolingDuct	-1.2454190074e+01	5.5495815846e+00	-3.8823802576e-02
2.6000000000e+01	coolingDuct_slave	-2.4582954397e+01	2.8812185600e+01	3.3161071613e-02
2.6000000000e+01	inlet_slave	-6.7762635780e-21	8.4703294725e-21	-6.5247910856e-25
2.6000000000e+01	default_to_pad1	-4.5796953630e+04	-1.3847221664e+04	-5.1229228329e+02
2.6000000000e+01	default_to_disk	-1.8746858212e+04	7.4592292081e+03	-2.0812164973e+03
2.6000000000e+01	default_to_pad2	-2.8610675048e+04	-1.6149483277e+04	-4.0403824560e+02
2.7000000000e+01	coolingDuct	-1.1411366411e+01	5.7726741878e+00	-3.6848272333e-02
2.7000000000e+01	coolingDuct_slave	-8.7146952662e+01	2.2538156344e+01	2.8034950606e-02
2.7000000000e+01	inlet_slave	-1.3552527156e-20	2.0328790734e-20	4.9917800246e-26
2.7000000000e+01	default_to_pad1	-4.5830591497e+04	-1.3796336819e+04	-5.1414808662e+02
2.7000000000e+01	default_to_disk	-1.8733390007e+04	7.5905502657e+03	-2.0795440859e+03
2.7000000000e+01	default_to_pad2	-2.8570700735e+04	-1.6088227294e+04	-4.0388855342e+02
2.8000000000e+01	coolingDuct	-1.1052745826e+01	6.1565659440e+00	-3.7269012715e-02
2.8000000000e+01	coolingDuct_slave	-1.2035078287e+02	2.0858723722e+01	1.9065898258e-02
2.8000000000e+01	inlet_slave	-3.3881317890e-21	5.0821976835e-21	-3.2017336689e-25
2.8000000000e+01	default_to_pad1	-4.5813723009e+04	-1.3812257655e+04	-5.1592572118e+02
2.8000000000e+01	default_to_disk	-1.8729159544e+04	7.6159163391e+03	-2.0778379374e+03
2.8000000000e+01	default_to_pad2	-2.8537697566e+04	-1.5892411703e+04	-4.0411118164e+02
2.9000000000e+01	coolingDuct	-1.1213000887e+01	6.1301145090e+00	-3.9083204827e-02
2.9000000000e+01	coolingDuct_slave	-6.2689726031e+01	1.9265059321e+01	5.5083854512e-03
2.9000000000e+01	inlet_slave	-1.6940658945e-21	8.4703294725e-21	1.1948865478e-24
2.9000000000e+01	default_to_pad1	-4.5771865824e+04	-1.4316786108e+04	-5.1754439682e+02
2.9000000000e+01	default_to_disk	-1.8721958217e+04	7.2858074665e+03	-2.0761678684e+03
2.9000000000e+01	default_to_pad2	-2.8509558548e+04	-1.5914031868e+04	-4.0466014214e+02
3.0000000000e+01	coolingDuct	-3.9416508325e+00	5.5664702083e+00	-2.0031363068e-02
3.0000000000e+01	coolingDuct_slave	-2.1454185893e+01	9.1812673490e+01	4.4457592320e-03
3.0000000000e+01	inlet_slave	-1.2705494209e-21	2.5410988418e-21	1.7475132984e-25
3.0000000000e+01	default_to_pad1	-4.5064386404e+04	-1.4102934775e+04	-5.1063221489e+02
3.0000000000e+01	default_to_disk	-1.8708087926e+04	5.8236138554e+03	-2.0754609698e+03
3.0000000000e+01	default_to_pad2	-2.8718989332e+04	-1.6479237125e+04	-4.0919472972e+02
3.1000000000e+01	coolingDuct	-4.3285289227e+00	5.7714519119e+00	-2.1993159938e-02
3.1000000000e+01	coolingDuct_slave	-2.2494796477e+01	1.8946460010e+01	-2.4939037114e-02
3.1000000000e+01	inlet_slave	-1.0587911841e-22	5.0821976835e-21	3.6915096108e-25
3.1000000000e+01	default_to_pad1	-4.4964370164e+04	-1.4328531845e+04	-5.1197557329e+02
3.1000000000e+01	default_to_disk	-1.8681108016e+04	5.1059817847e+03	-2.0739926621e+03
3.1000000000e+01	default_to_pad2	-2.8695051142e+04	-1.6292373226e+04	-4.0993136988e+02
3.2000000000e+01	coolingDuct	-4.5811362791e+00	5.5297586545e+00	-2.2585816395e-02
3.2000000000e+01	coolingDuct_slave	-6.5239901221e+01	1.8801234714e+01	-5.8636828697e-02
3.2000000000e+01	inlet_slave	-1.6940658945e-21	3.3881317890e-21	2.1989368653e-25
3.2000000000e+01	default_to_pad1	-4.4836807057e+04	-1.4597421959e+04	-5.1317019021e+02
3.2000000000e+01	default_to_disk	-1.8648646514e+04	4.7702255448e+03	-2.0730830911e+03
3.2000000000e+01	default_to_pad2	-2.8675097360e+04	-1.6148637387e+04	-4.1049882291e+02
3.3000000000e+01	coolingDuct	-4.6259116999e+00	5.8304290081e+00	-2.2070302881e-02
3.3000000000e+01	coolingDuct_slave	-7.6204718354e+01	1.9214578861e+01	-9.6059795840e-02
3.3000000000e+01	inlet_slave	-1.6940658945e-21	1.6940658945e-21	4.3681572008e-26
3.3000000000e+01	default_to_pad1	-4.4690570467e+04	-1.4952549512e+04	-5.1414145063e+02
3.3000000000e+01	default_to_disk	-1.8608923685e+04	3.9289037685e+03	-2.0730199377e+03
3.3000000000e+01	default_to_pad2	-2.8656392549e+04	-1.6099957281e+04	-4.1087056672e+02
3.4000000000e+01	coolingDuct	-4.5371011447e+00	5.6142228852e+00	-2.0304562417e-02
3.4000000000e+01	coolingDuct_slave	-2.4489230225e+01	2.2113332910e+01	-1.3878318793e-01
3.4000000000e+01	inlet_slave	-5.0821976835e-21	3.3881317890e-21	1.8588016072e-25
3.4000000000e+01	default_to_pad1	-4.4538216490e+04	-1.5142890810e+04	-5.1489978880e+02
3.4000000000e+01	default_to_disk	-1.8564652898e+04	3.8959283484e+03	-2.0733181471e+03
3.4000000000e+01	default_to_pad2	-2.8639772763e+04	-1.6168552251e+04	-4.1105397391e+02
3.5000000000e+01	coolingDuct	-5.4532206529e+00	6.0377232004e+00	-1.7697611597e-02
3.5000000000e+01	coolingDuct_slave	-2.5279749500e+01	5.7431019044e+01	-1.8631774702e-01
3.5000000000e+01	inlet_slave	-5.0821976835e-21	3.3881317890e-21	5.1517077096e-26
3.5000000000e+01	default_to_pad1	-4.4375786901e+04	-1.5171143671e+04	-5.1549716125e+02
3.5000000000e+01	default_to_disk	-1.8518664079e+04	4.0639836018e+03	-2.0743053649e+03
3.5000000000e+01	default_to_pad2	-2.8625048057e+04	-1.6330974086e+04	-4.1110195956e+02
3.6000000000e+01	coolingDuct	-6.2999718798e+00	5.8093038329e+00	-1.4574600187e-02
3.6000000000e+01	coolingDuct_slave	-5.1094448906e+01	1.8222283870e+01	-2.3367517548e-01
3.6000000000e+01	inlet_slave	-6.7762635780e-21	2.5410988418e-21	-1.0224222193e-25
3.6000000000e+01	default_to_pad1	-4.4211289295e+04	-1.5014713901e+04	-5.1598669271e+02
3.6000000000e+01	default_to_disk	-1.8471050919e+04	4.3853755920e+03	-2.0752301712e+03
3.6000000000e+01	default_to_pad2	-2.8611636579e+04	-1.6461579587e+04	-4.1105548138e+02
3.7000000000e+01	coolingDuct	-6.8640755733e+00	6.2994928111e+00	-1.1712407514e-02
3.7000000000e+01	coolingDuct_slave	-6.2294428502e+01	1.7678635357e+01	-2.7186976104e-01
3.7000000000e+01	inlet_slave	-1.6940658945e-21	3.3881317890e-21	1.4851252056e-25
3.7000000000e+01	default_to_pad1	-4.4041986865e+04	-1.4918223606e+04	-5.1640113623e+02
3.7000000000e+01	default_to_disk	-1.8421950722e+04	4.7224118441e+03	-2.0762104719e+03
3.7000000000e+01	default_to_pad2	-2.8600940464e+04	-1.6581617190e+04	-4.1089195600e+02
3.8000000000e+01	coolingDuct	-7.2279377126e+00	7.3669837223e+00	-9.1517256583e-03
3.8000000000e+01	coolingDuct_slave	-5.5188625745e+01	1.6836094846e+01	-3.0431730734e-01
3.8000000000e+01	inlet_slave	-8.4703294725e-22	1.5246593051e-20	1.5978905293e-24
3.8000000000e+01	default_to_pad1	-4.3875355626e+04	-1.4787269664e+04	-5.1676196569e+02
3.8000000000e+01	default_to_disk	-1.8372339441e+04	5.0603519459e+03	-2.0767399986e+03
3.8000000000e+01	default_to_pad2	-2.8593097122e+04	-1.6730756670e+04	-4.1059077262e+02
3.9000000000e+01	coolingDuct	-7.5227486604e+00	9.0330397310e+00	-6.8717339891e-03
3.9000000000e+01	coolingDuct_slave	-2.9265098714e+01	5.1007840467e+01	-3.2813177550e-01
3.9000000000e+01	inlet_slave	-4.2351647363e-21	3.0704944338e-21	1.0179844330e-27
3.9000000000e+01	default_to_pad1	-4.3708867049e+04	-1.4684904922e+04	-5.1712131106e+02
3.9000000000e+01	default_to_disk	-1.8322408822e+04	5.3689059897e+03	-2.0773864886e+03
3.9000000000e+01	default_to_pad2	-2.8588442426e+04	-1.6665473558e+04	-4.1012962338e+02
4.0000000000e+01	coolingDuct	-5.4110717980e+00	7.3157248687e+00	4.0824648309e-03
4.0000000000e+01	coolingDuct_slave	-2.5381856211e+01	2.6814963744e+01	7.6367622190e-03
4.0000000000e+01	inlet_slave	-2.9646153154e-21	2.7528570786e-21	-1.7100485163e-25
4.0000000000e+01	default_to_pad1	-4.3507804887e+04	-1.4762043765e+04	-5.1502906618e+02
4.0000000000e+01	default_to_disk	-1.8268556326e+04	5.4376826500e+03	-2.0760191773e+03
4.0000000000e+01	default_to_pad2	-2.8718317628e+04	-1.6448414768e+04	-4.0903320998e+02
4.1000000000e+01	coolingDuct	-7.1031361334e+00	8.0073712309e+00	5.2598357111e-03
4.1000000000e+01	coolingDuct_slave	-2.5836686073e+01	1.7569039585e+01	-5.9645573188e-03
4.1000000000e+01	inlet_slave	-1.1646703025e-21	5.8233515124e-22	-1.0364454234e-25
4.1000000000e+01	default_to_pad1	-4.3349954831e+04	-1.4749341917e+04	-5.1541472602e+02
4.1000000000e+01	default_to_disk	-1.8219122011e+04	5.4994567966e+03	-2.0764028813e+03
4.1000000000e+01	default_to_pad2	-2.8718994956e+04	-1.6233961233e+04	-4.0815442870e+02
4.2000000000e+01	coolingDuct	-4.0289341965e+00	9.4582899959e+00	6.3727559348e-03
4.2000000000e+01	coolingDuct_slave	-2.6935356305e+01	1.7414452769e+01	-1.3895999771e-02
4.2000000000e+01	inlet_slave	-1.0984958535e-21	4.2351647363e-22	-4.3052172352e-26
4.2000000000e+01	default_to_pad1	-4.3203815194e+04	-1.4744031766e+04	-5.1577056168e+02
4.2000000000e+01	default_to_disk	-1.8171813472e+04	5.3780977135e+03	-2.0764440202e+03
4.2000000000e+01	default_to_pad2	-2.8721216509e+04	-1.6010513560e+04	-4.0704578923e+02
4.3000000000e+01	coolingDuct	-2.5009779057e+00	1.0987641584e+01	7.3922057584e-03
4.3000000000e+01	coolingDuct_slave	-2.6059347729e+01	1.7513321549e+01	-1.8834953170e-02
4.3000000000e+01	inlet_slave	-1.1911400821e-22	1.0587911841e-22	-8.9618604818e-27
4.3000000000e+01	default_to_pad1	-4.3063333796e+04	-1.4732263378e+04	-5.1608215388e+02
4.3000000000e+01	default_to_disk	-1.8127250208e+04	5.1718410501e+03	-2.0766881496e+03
4.3000000000e+01	default_to_pad2	-2.8725200509e+04	-1.5796078521e+04	-4.0574332994e+02
4.4000000000e+01	coolingDuct	-1.9463419815e+00	1.2664199835e+01	8.1593708331e-03
4.4000000000e+01	coolingDuct_slave	-2.5909531035e+01	5.6577204899e+01	-1.9199336894e-02
4.4000000000e+01	inlet_slave	-1.8528845721e-22	3.6395946952e-23	-9.4819586133e-27
4.4000000000e+01	default_to_pad1	-4.2933434309e+04	-1.4708461904e+04	-5.1639650125e+02
4.4000000000e+01	default_to_disk	-1.8086502491e+04	5.0233025026e+03	-2.0770183116e+03
4.4000000000e+01	default_to_pad2	-2.8731186961e+04	-1.5619087040e+04	-4.0434887429e+02
4.5000000000e+01	coolingDuct	-1.9285180957e+00	1.4096573026e+01	8.4398459949e-03
4.5000000000e+01	coolingDuct_slave	-2.5648178741e+01	1.8148331933e+01	-2.0673672138e-02
4.5000000000e+01	inlet_slave	-7.2791893905e-23	2.1175823681e-22	1.3761751815e-26
4.5000000000e+01	default_to_pad1	-4.2807038036e+04	-1.4702322290e+04	-5.1662801758e+02
4.5000000000e+01	default_to_disk	-1.8047681041e+04	5.0814843320e+03	-2.0775504730e+03
4.5000000000e+01	default_to_pad2	-2.8738827691e+04	-1.5504203904e+04	-4.0304649167e+02
4.6000000000e+01	coolingDuct	-1.9061443145e+00	1.5334561456e+01	8.6066821867e-03
4.6000000000e+01	coolingDuct_slave	-2.5227649493e+01	1.8604958785e+01	-1.9014010680e-02
4.6000000000e+01	inlet_slave	-5.2939559203e-23	1.4558378781e-22	1.1574097744e-26
4.6000000000e+01	default_to_pad1	-4.2688061338e+04	-1.4751805326e+04	-5.1689899732e+02
4.6000000000e+01	default_to_disk	-1.8012222445e+04	5.5303311437e+03	-2.0778218369e+03
4.6000000000e+01	default_to_pad2	-2.8748286441e+04	-1.5455347516e+04	-4.0189899235e+02
4.7000000000e+01	coolingDuct	-2.6834990812e+00	1.6217174762e+01	7.9133505434e-03
4.7000000000e+01	coolingDuct_slave	-2.4827119456e+01	1.9079003999e+01	-1.6102314944e-02
4.7000000000e+01	inlet_slave	-7.9409338805e-23	1.4558378781e-22	7.6062192315e-27
4.7000000000e+01	default_to_pad1	-4.2571217729e+04	-1.4850461996e+04	-5.1704890599e+02
4.7000000000e+01	default_to_disk	-1.7977285312e+04	5.7694187246e+03	-2.0780137015e+03
4.7000000000e+01	default_to_pad2	-2.8758955261e+04	-1.5461600125e+04	-4.0096102841e+02
4.8000000000e+01	coolingDuct	-1.8656745755e+00	1.6249988708e+01	7.7710727287e-03
4.8000000000e+01	coolingDuct_slave	-2.4374071262e+01	1.9475316400e+01	-1.2412298906e-02
4.8000000000e+01	inlet_slave	-1.0587911841e-22	8.9335506156e-23	2.6892531673e-27
4.8000000000e+01	default_to_pad1	-4.2460901753e+04	-1.4981868163e+04	-5.1712172020e+02
4.8000000000e+01	default_to_disk	-1.7945426172e+04	5.8423275508e+03	-2.0778662383e+03
4.8000000000e+01	default_to_pad2	-2.8769609722e+04	-1.5494064961e+04	-4.0027961281e+02
4.9000000000e+01	coolingDuct	-4.5025312092e+00	1.5551660538e+01	6.6918116855e-03
4.9000000000e+01	coolingDuct_slave	-2.3993083541e+01	4.6759489242e+01	-8.4839023881e-03
4.9000000000e+01	inlet_slave	-1.2573145311e-22	1.0257039596e-22	6.5004051696e-27
4.9000000000e+01	default_to_pad1	-4.2351943369e+04	-1.5094617019e+04	-5.1712854218e+02
4.9000000000e+01	default_to_disk	-1.7914732340e+04	5.9260686622e+03	-2.0776787860e+03
4.9000000000e+01	default_to_pad2	-2.8778870699e+04	-1.5515914949e+04	-3.9988275034e+02
5.0000000000e+01	coolingDuct	-3.9450848535e+00	7.8042523455e+00	3.0140390956e-03
5.0000000000e+01	coolingDuct_slave	-2.1469583623e+01	2.1502504437e+01	-9.1519680266e-04
5.0000000000e+01	inlet_slave	-1.4558378781e-22	7.9409338805e-23	-6.1190206407e-27
5.0000000000e+01	default_to_pad1	-4.2067768743e+04	-1.5153626171e+04	-5.1635857690e+02
5.0000000000e+01	default_to_disk	-1.7884224993e+04	5.7883408259e+03	-2.0769683708e+03
5.0000000000e+01	default_to_pad2	-2.8891281305e+04	-1.5695896032e+04	-4.0360140946e+02
