# Time           	U.airmin         	at location      	U.airmax         	at location      	U.airmean        	U.airstDev       	pmin             	at location      	pmax             	at location      	pmean            	pstDev           	T.airmin         	at location      	T.airmax         	at location      	T.airmean        	T.airstDev       
0.05             4.1153343909e-03 ( 2.8565217390e-01 5.7761903525e-01 7.3000000000e-03 ) 1.0313441623e+00 ( 2.9499993500e-01 5.4379924760e-02 7.3000000000e-03 ) 1.1434217814e-01 9.1261329404e-02 -5.3820087535e+01 ( 2.4756521740e-01 2.5857079715e-01 7.3000000000e-03 ) 1.2024390987e+04 ( 1.9043478260e-02 2.9999350000e-03 7.3000000000e-03 ) 2.9589804486e+02 1.2303033934e+03 3.0000000000e+02 ( 6.3478260850e-03 2.9999350000e-03 7.3000000000e-03 ) 3.0000000000e+02 ( 6.3478260850e-03 2.9999350000e-03 7.3000000000e-03 ) 3.0000000000e+02 2.9558577808e-12 
