# Moment     
# CofR       : ( 0.000000e+00 0.000000e+00 0.000000e+00 )
#            
# Time       	(total_x total_y total_z)	(pressure_x pressure_y pressure_z)	(viscous_x viscous_y viscous_z)
0.0001       	( -2.231246e-02 -5.916098e+01 3.997335e-02 )	( -2.231898e-02 -5.758529e+01 3.993460e-02 )	( 6.522287e-06 -1.575691e+00 3.874549e-05 )
