# Time         	Tmin           	at location    	Tmax           	at location    	Tmean          	TstDev         
1              3.00090905e+02 ( 6.20000000e-02 2.87500000e-02 5.00000000e-03 ) 3.00926841e+02 ( 1.02000000e-01 2.12500000e-02 5.00000000e-03 ) 3.00548665e+02 2.67003528e-01 
2              3.00127178e+02 ( 1.38000000e-01 2.87500000e-02 5.00000000e-03 ) 3.01645971e+02 ( 1.02000000e-01 2.12500000e-02 5.00000000e-03 ) 3.00949860e+02 4.75792446e-01 
3              3.00139595e+02 ( 1.38000000e-01 2.87500000e-02 5.00000000e-03 ) 3.02203064e+02 ( 1.02000000e-01 2.12500000e-02 5.00000000e-03 ) 3.01250131e+02 6.38991029e-01 
4              3.00141499e+02 ( 1.38000000e-01 2.87500000e-02 5.00000000e-03 ) 3.02635517e+02 ( 1.02000000e-01 2.12500000e-02 5.00000000e-03 ) 3.01478623e+02 7.67172384e-01 
5              3.00138962e+02 ( 1.38000000e-01 2.87500000e-02 5.00000000e-03 ) 3.02972827e+02 ( 1.02000000e-01 2.12500000e-02 5.00000000e-03 ) 3.01654806e+02 8.68664528e-01 
6              3.00134821e+02 ( 1.38000000e-01 2.87500000e-02 5.00000000e-03 ) 3.03237649e+02 ( 1.02000000e-01 2.12500000e-02 5.00000000e-03 ) 3.01792190e+02 9.49781263e-01 
7              3.00130400e+02 ( 1.38000000e-01 2.87500000e-02 5.00000000e-03 ) 3.03447107e+02 ( 1.02000000e-01 2.12500000e-02 5.00000000e-03 ) 3.01900393e+02 1.01523784e+00 
8              3.00126291e+02 ( 1.38000000e-01 2.87500000e-02 5.00000000e-03 ) 3.03614054e+02 ( 1.02000000e-01 2.12500000e-02 5.00000000e-03 ) 3.01986383e+02 1.06854607e+00 
9              3.00122722e+02 ( 1.38000000e-01 2.87500000e-02 5.00000000e-03 ) 3.03748120e+02 ( 1.02000000e-01 2.12500000e-02 5.00000000e-03 ) 3.02055283e+02 1.11233172e+00 
10             3.00119748e+02 ( 1.38000000e-01 2.87500000e-02 5.00000000e-03 ) 3.03856543e+02 ( 1.02000000e-01 2.12500000e-02 5.00000000e-03 ) 3.02110905e+02 1.14857298e+00 
11             3.00117336e+02 ( 1.38000000e-01 2.87500000e-02 5.00000000e-03 ) 3.03944794e+02 ( 1.02000000e-01 2.12500000e-02 5.00000000e-03 ) 3.02156116e+02 1.17877474e+00 
12             3.00115422e+02 ( 1.38000000e-01 2.87500000e-02 5.00000000e-03 ) 3.04017039e+02 ( 1.02000000e-01 2.12500000e-02 5.00000000e-03 ) 3.02193093e+02 1.20409418e+00 
13             3.00113930e+02 ( 1.38000000e-01 2.87500000e-02 5.00000000e-03 ) 3.04076479e+02 ( 1.02000000e-01 2.12500000e-02 5.00000000e-03 ) 3.02223508e+02 1.22543111e+00 
14             3.00112786e+02 ( 1.38000000e-01 2.87500000e-02 5.00000000e-03 ) 3.04125595e+02 ( 1.02000000e-01 2.12500000e-02 5.00000000e-03 ) 3.02248653e+02 1.24349299e+00 
15             3.00111924e+02 ( 1.38000000e-01 2.87500000e-02 5.00000000e-03 ) 3.04167409e+02 ( 1.06000000e-01 2.12500000e-02 5.00000000e-03 ) 3.02269539e+02 1.25884206e+00 
16             3.00111287e+02 ( 1.38000000e-01 2.87500000e-02 5.00000000e-03 ) 3.04202289e+02 ( 1.06000000e-01 2.12500000e-02 5.00000000e-03 ) 3.02286960e+02 1.27192963e+00 
17             3.00110826e+02 ( 1.38000000e-01 2.87500000e-02 5.00000000e-03 ) 3.04231354e+02 ( 1.06000000e-01 2.12500000e-02 5.00000000e-03 ) 3.02301516e+02 1.28310065e+00 
18             3.00110503e+02 ( 1.38000000e-01 2.87500000e-02 5.00000000e-03 ) 3.04255690e+02 ( 1.06000000e-01 2.12500000e-02 5.00000000e-03 ) 3.02313752e+02 1.29268272e+00 
19             3.00110287e+02 ( 1.38000000e-01 2.87500000e-02 5.00000000e-03 ) 3.04276088e+02 ( 1.06000000e-01 2.12500000e-02 5.00000000e-03 ) 3.02324070e+02 1.30091920e+00 
20             3.00110153e+02 ( 1.38000000e-01 2.87500000e-02 5.00000000e-03 ) 3.04293199e+02 ( 1.06000000e-01 2.12500000e-02 5.00000000e-03 ) 3.02332795e+02 1.30801222e+00 
21             3.00110079e+02 ( 1.38000000e-01 2.87500000e-02 5.00000000e-03 ) 3.04307554e+02 ( 1.06000000e-01 2.12500000e-02 5.00000000e-03 ) 3.02340191e+02 1.31413063e+00 
22             3.00110049e+02 ( 1.38000000e-01 2.87500000e-02 5.00000000e-03 ) 3.04319597e+02 ( 1.06000000e-01 2.12500000e-02 5.00000000e-03 ) 3.02346475e+02 1.31941612e+00 
23             3.00110053e+02 ( 1.38000000e-01 2.87500000e-02 5.00000000e-03 ) 3.04329694e+02 ( 1.06000000e-01 2.12500000e-02 5.00000000e-03 ) 3.02351827e+02 1.32398814e+00 
24             3.00110079e+02 ( 1.38000000e-01 2.87500000e-02 5.00000000e-03 ) 3.04338153e+02 ( 1.06000000e-01 2.12500000e-02 5.00000000e-03 ) 3.02356393e+02 1.32794775e+00 
25             3.00110122e+02 ( 1.38000000e-01 2.87500000e-02 5.00000000e-03 ) 3.04345228e+02 ( 1.06000000e-01 2.12500000e-02 5.00000000e-03 ) 3.02360296e+02 1.33138077e+00 
26             3.00110174e+02 ( 1.38000000e-01 2.87500000e-02 5.00000000e-03 ) 3.04351137e+02 ( 1.06000000e-01 2.12500000e-02 5.00000000e-03 ) 3.02363638e+02 1.33436023e+00 
27             3.00110233e+02 ( 1.38000000e-01 2.87500000e-02 5.00000000e-03 ) 3.04356060e+02 ( 1.06000000e-01 2.12500000e-02 5.00000000e-03 ) 3.02366504e+02 1.33694851e+00 
28             3.00110295e+02 ( 1.38000000e-01 2.87500000e-02 5.00000000e-03 ) 3.04360149e+02 ( 1.06000000e-01 2.12500000e-02 5.00000000e-03 ) 3.02368967e+02 1.33919894e+00 
29             3.00110358e+02 ( 1.38000000e-01 2.87500000e-02 5.00000000e-03 ) 3.04363535e+02 ( 1.06000000e-01 2.12500000e-02 5.00000000e-03 ) 3.02371085e+02 1.34115725e+00 
30             3.00110420e+02 ( 1.38000000e-01 2.87500000e-02 5.00000000e-03 ) 3.04366327e+02 ( 1.06000000e-01 2.12500000e-02 5.00000000e-03 ) 3.02372910e+02 1.34286270e+00 
31             3.00110480e+02 ( 1.38000000e-01 2.87500000e-02 5.00000000e-03 ) 3.04368617e+02 ( 1.06000000e-01 2.12500000e-02 5.00000000e-03 ) 3.02374484e+02 1.34434906e+00 
32             3.00110537e+02 ( 1.38000000e-01 2.87500000e-02 5.00000000e-03 ) 3.04370483e+02 ( 1.06000000e-01 2.12500000e-02 5.00000000e-03 ) 3.02375843e+02 1.34564540e+00 
33             3.00110591e+02 ( 1.38000000e-01 2.87500000e-02 5.00000000e-03 ) 3.04372161e+02 ( 1.10000000e-01 2.12500000e-02 5.00000000e-03 ) 3.02377019e+02 1.34677680e+00 
34             3.00110642e+02 ( 1.38000000e-01 2.87500000e-02 5.00000000e-03 ) 3.04373802e+02 ( 1.10000000e-01 2.12500000e-02 5.00000000e-03 ) 3.02378037e+02 1.34776491e+00 
35             3.00110689e+02 ( 1.38000000e-01 2.87500000e-02 5.00000000e-03 ) 3.04375159e+02 ( 1.10000000e-01 2.12500000e-02 5.00000000e-03 ) 3.02378919e+02 1.34862843e+00 
36             3.00110732e+02 ( 1.38000000e-01 2.87500000e-02 5.00000000e-03 ) 3.04376276e+02 ( 1.10000000e-01 2.12500000e-02 5.00000000e-03 ) 3.02379684e+02 1.34938356e+00 
37             3.00110772e+02 ( 1.38000000e-01 2.87500000e-02 5.00000000e-03 ) 3.04377188e+02 ( 1.10000000e-01 2.12500000e-02 5.00000000e-03 ) 3.02380349e+02 1.35004429e+00 
38             3.00110809e+02 ( 1.38000000e-01 2.87500000e-02 5.00000000e-03 ) 3.04377927e+02 ( 1.10000000e-01 2.12500000e-02 5.00000000e-03 ) 3.02380927e+02 1.35062278e+00 
39             3.00110842e+02 ( 1.38000000e-01 2.87500000e-02 5.00000000e-03 ) 3.04378521e+02 ( 1.10000000e-01 2.12500000e-02 5.00000000e-03 ) 3.02381431e+02 1.35112956e+00 
40             3.00110873e+02 ( 1.38000000e-01 2.87500000e-02 5.00000000e-03 ) 3.04378991e+02 ( 1.10000000e-01 2.12500000e-02 5.00000000e-03 ) 3.02381869e+02 1.35157378e+00 
41             3.00110900e+02 ( 1.38000000e-01 2.87500000e-02 5.00000000e-03 ) 3.04379359e+02 ( 1.10000000e-01 2.12500000e-02 5.00000000e-03 ) 3.02382252e+02 1.35196337e+00 
42             3.00110925e+02 ( 1.38000000e-01 2.87500000e-02 5.00000000e-03 ) 3.04379640e+02 ( 1.10000000e-01 2.12500000e-02 5.00000000e-03 ) 3.02382586e+02 1.35230524e+00 
43             3.00110948e+02 ( 1.38000000e-01 2.87500000e-02 5.00000000e-03 ) 3.04379849e+02 ( 1.10000000e-01 2.12500000e-02 5.00000000e-03 ) 3.02382878e+02 1.35260540e+00 
44             3.00110968e+02 ( 1.38000000e-01 2.87500000e-02 5.00000000e-03 ) 3.04379998e+02 ( 1.10000000e-01 2.12500000e-02 5.00000000e-03 ) 3.02383134e+02 1.35286908e+00 
45             3.00110987e+02 ( 1.38000000e-01 2.87500000e-02 5.00000000e-03 ) 3.04380097e+02 ( 1.10000000e-01 2.12500000e-02 5.00000000e-03 ) 3.02383357e+02 1.35310084e+00 
46             3.00111003e+02 ( 1.38000000e-01 2.87500000e-02 5.00000000e-03 ) 3.04380154e+02 ( 1.10000000e-01 2.12500000e-02 5.00000000e-03 ) 3.02383553e+02 1.35330463e+00 
47             3.00111018e+02 ( 1.38000000e-01 2.87500000e-02 5.00000000e-03 ) 3.04380178e+02 ( 1.10000000e-01 2.12500000e-02 5.00000000e-03 ) 3.02383725e+02 1.35348394e+00 
48             3.00111032e+02 ( 1.38000000e-01 2.87500000e-02 5.00000000e-03 ) 3.04380175e+02 ( 1.10000000e-01 2.12500000e-02 5.00000000e-03 ) 3.02383876e+02 1.35364177e+00 
49             3.00111044e+02 ( 1.38000000e-01 2.87500000e-02 5.00000000e-03 ) 3.04380147e+02 ( 1.10000000e-01 2.12500000e-02 5.00000000e-03 ) 3.02384008e+02 1.35378008e+00 
50             3.00111054e+02 ( 1.38000000e-01 2.87500000e-02 5.00000000e-03 ) 3.04380102e+02 ( 1.10000000e-01 2.12500000e-02 5.00000000e-03 ) 3.02384124e+02 1.35390211e+00 
