# Time             	Tmin               	at location        	Tmax               	at location        	Tmean              	TstDev             	Umin               	at location        	Umax               	at location        	Umean              	UstDev             	pmin               	at location        	pmax               	at location        	pmean              	pstDev             
0.3                2.977173172489e+02 ( -1.453125000000e-01 1.989919354839e+00 2.375000000000e-01 ) 2.303104360869e+03 ( 4.687500000000e-03 2.540322580645e-02 -1.375000000000e-01 ) 3.129125129523e+02 1.310261862546e+02 9.239728144059e-06 ( -4.687500000000e-03 2.345564516129e+00 3.750000000000e-02 ) 3.132914129444e+00 ( -4.687500000000e-03 2.540322580645e-02 -2.625000000000e-01 ) 5.646067538523e-02 1.635043645315e-01 -4.835037692164e+01 ( 9.375000000000e-03 4.183064516129e+00 1.250000000000e-01 ) -1.642030368497e-01 ( -9.375000000000e-03 1.693548387097e-02 3.250000000000e-01 ) -2.432510377461e+01 1.393361759440e+01 
