# Wall heat-flux 
# Time           	patch            	min              	max              	integral         
1.0000000000e+00	coolingDuct	-1.8893080812e+01	7.4234360972e+00	-1.8914149007e-02
1.0000000000e+00	coolingDuct_slave	-4.5098442235e+00	3.3268745219e+00	6.7212837090e-02
1.0000000000e+00	inlet_slave	-6.7762635780e-21	1.5670109524e-20	1.7450432990e-24
1.0000000000e+00	default_to_pad1	-4.7806172798e+04	-9.6555692771e+03	-2.9525894104e+02
1.0000000000e+00	default_to_disk	-7.2840005329e+03	-7.5557459998e+02	-7.9623600724e+02
1.0000000000e+00	default_to_pad2	-5.8052920270e+04	-9.2137162888e+03	-3.1191888567e+02
2.0000000000e+00	coolingDuct	-7.9420252488e+00	7.1184807220e+00	7.6906758281e-02
2.0000000000e+00	coolingDuct_slave	2.0874854973e-02	4.5758550683e+00	1.1352748296e-01
2.0000000000e+00	inlet_slave	-2.7105054312e-20	1.3552527156e-20	6.6353327091e-25
2.0000000000e+00	default_to_pad1	-2.5431914940e+04	-4.6345777974e+03	-1.5182241695e+02
2.0000000000e+00	default_to_disk	-8.8560818544e+03	5.3808692483e+01	-1.1320080352e+03
2.0000000000e+00	default_to_pad2	-2.9775258224e+04	-3.1236752536e+03	-1.5672522301e+02
3.0000000000e+00	coolingDuct	-1.2145590505e+00	3.3073711957e+00	8.2940269526e-02
3.0000000000e+00	coolingDuct_slave	-1.0035380677e+01	7.0858120103e+00	9.0285165445e-02
3.0000000000e+00	inlet_slave	-4.4469229731e-21	3.3881317890e-21	1.9634134798e-27
3.0000000000e+00	default_to_pad1	-2.4588564497e+04	-4.0880140111e+03	-1.4669097943e+02
3.0000000000e+00	default_to_disk	-1.2591748984e+04	2.1100804807e+03	-1.5090011509e+03
3.0000000000e+00	default_to_pad2	-2.9817510865e+04	-2.4710237536e+03	-1.5384445127e+02
4.0000000000e+00	coolingDuct	-2.9738392012e+00	4.7007401323e+00	6.9590206200e-02
4.0000000000e+00	coolingDuct_slave	-2.0685562147e+00	3.1789836425e+01	1.1581495387e-01
4.0000000000e+00	inlet_slave	-2.5410988418e-21	4.2351647363e-22	-2.4654146129e-25
4.0000000000e+00	default_to_pad1	-2.3116187806e+04	-4.1573547071e+03	-1.5277908885e+02
4.0000000000e+00	default_to_disk	-1.4987027741e+04	4.3663174584e+03	-1.7485598546e+03
4.0000000000e+00	default_to_pad2	-2.9015349378e+04	-2.6398538595e+03	-1.5824012235e+02
5.0000000000e+00	coolingDuct	-3.8761629598e+00	5.3715655290e+00	5.4726822969e-02
5.0000000000e+00	coolingDuct_slave	-3.2989394750e-01	5.2094661289e+00	1.2603064954e-01
5.0000000000e+00	inlet_slave	-3.3881317890e-21	6.7762635780e-21	8.0444267193e-25
5.0000000000e+00	default_to_pad1	-2.1092517480e+04	-4.2187561324e+03	-1.5913653701e+02
5.0000000000e+00	default_to_disk	-1.7685381775e+04	6.4717835123e+03	-1.8734415300e+03
5.0000000000e+00	default_to_pad2	-2.7563688866e+04	-3.0306021322e+03	-1.6098349576e+02
6.0000000000e+00	coolingDuct	-3.5256076993e+00	1.1550772472e+01	5.0974599956e-02
6.0000000000e+00	coolingDuct_slave	5.4269086712e-01	8.4584469130e+00	1.5194940795e-01
6.0000000000e+00	inlet_slave	-4.0657581468e-20	1.3552527156e-20	-6.7327021842e-25
6.0000000000e+00	default_to_pad1	-2.2287661556e+04	-4.1826296867e+03	-1.6431524454e+02
6.0000000000e+00	default_to_disk	-2.0474910106e+04	8.5564197608e+03	-1.9248337443e+03
6.0000000000e+00	default_to_pad2	-2.4996843957e+04	-3.4318408493e+03	-1.6036223290e+02
7.0000000000e+00	coolingDuct	-3.1595158784e+00	6.8142363805e+00	7.0548762752e-02
7.0000000000e+00	coolingDuct_slave	-9.9078261951e+00	8.4746127506e+00	1.8102292560e-01
7.0000000000e+00	inlet_slave	-2.7105054312e-20	1.3552527156e-20	-1.7376075109e-24
7.0000000000e+00	default_to_pad1	-2.4558895295e+04	-4.0277502950e+03	-1.6980560529e+02
7.0000000000e+00	default_to_disk	-2.2031713991e+04	1.0487762459e+04	-1.9354195632e+03
7.0000000000e+00	default_to_pad2	-2.4580417897e+04	-3.8955739683e+03	-1.5887370360e+02
8.0000000000e+00	coolingDuct	-2.5523646595e+00	7.2070123393e+00	8.1679795561e-02
8.0000000000e+00	coolingDuct_slave	1.0693583252e-01	6.7138463190e+00	2.2187905245e-01
8.0000000000e+00	inlet_slave	-5.4210108624e-20	2.7105054312e-20	1.2466405555e-24
8.0000000000e+00	default_to_pad1	-2.7075551595e+04	-3.7718051543e+03	-1.7589798625e+02
8.0000000000e+00	default_to_disk	-2.2550720474e+04	1.1908693923e+04	-1.9249705527e+03
8.0000000000e+00	default_to_pad2	-2.4054140780e+04	-4.2772641521e+03	-1.6098691615e+02
9.0000000000e+00	coolingDuct	-1.5644748284e+00	9.6735421940e+00	8.3926912893e-02
9.0000000000e+00	coolingDuct_slave	1.1243697744e+00	7.3407827180e+00	2.6840757949e-01
9.0000000000e+00	inlet_slave	-1.6263032587e-19	1.6940658945e-21	-1.3870198713e-23
9.0000000000e+00	default_to_pad1	-3.0100742872e+04	-3.4792072623e+03	-1.8317141790e+02
9.0000000000e+00	default_to_disk	-2.2277567041e+04	1.2515077963e+04	-1.9055211732e+03
9.0000000000e+00	default_to_pad2	-2.3498406454e+04	-4.1631131304e+03	-1.6278948189e+02
1.0000000000e+01	coolingDuct	-3.4429901318e+01	9.7706953312e+01	4.2111104980e-03
1.0000000000e+01	coolingDuct_slave	-2.9164684983e+02	3.8231344985e+02	1.9607132074e+00
1.0000000000e+01	inlet_slave	-5.4210108624e-20	2.1684043450e-19	1.6267545075e-23
1.0000000000e+01	default_to_pad1	-4.1574519845e+04	-1.5777831316e+04	-4.3734310501e+02
1.0000000000e+01	default_to_disk	-2.2570410321e+04	1.4581890258e+04	-2.1868266735e+03
1.0000000000e+01	default_to_pad2	-3.4016608814e+04	-1.5081855943e+04	-4.1503515749e+02
1.1000000000e+01	coolingDuct	-7.2584236408e-01	9.8174370681e+01	2.6445167121e-01
1.1000000000e+01	coolingDuct_slave	-1.1782139603e+02	2.7657777457e+02	1.9497796977e+00
1.1000000000e+01	inlet_slave	-1.0842021725e-19	1.0842021725e-19	-1.3513456625e-24
1.1000000000e+01	default_to_pad1	-4.4192948948e+04	-1.4764144786e+04	-4.4596600379e+02
1.1000000000e+01	default_to_disk	-2.1906634637e+04	1.2979005924e+04	-2.1782552903e+03
1.1000000000e+01	default_to_pad2	-3.3450106437e+04	-1.5100440868e+04	-4.1650785893e+02
1.2000000000e+01	coolingDuct	-1.1621577846e+01	1.0124047989e+02	3.6619952970e-01
1.2000000000e+01	coolingDuct_slave	-1.5809431882e+02	2.0281498355e+02	1.9771443279e+00
1.2000000000e+01	inlet_slave	-1.0842021725e-19	1.6263032587e-19	8.8717413758e-24
1.2000000000e+01	default_to_pad1	-4.6094010440e+04	-1.5735035059e+04	-4.5431875885e+02
1.2000000000e+01	default_to_disk	-2.1317109311e+04	1.1214943740e+04	-2.1701504804e+03
1.2000000000e+01	default_to_pad2	-3.2860526281e+04	-1.5247518704e+04	-4.1771611384e+02
1.3000000000e+01	coolingDuct	-1.6290214267e+02	9.0181956675e+01	2.1694440424e-01
1.3000000000e+01	coolingDuct_slave	-2.0747354716e+01	2.9756444284e+02	2.0015144789e+00
1.3000000000e+01	inlet_slave	-5.4210108624e-20	5.4210108624e-20	5.9486180720e-24
1.3000000000e+01	default_to_pad1	-4.7009029594e+04	-1.5635380297e+04	-4.6256101649e+02
1.3000000000e+01	default_to_disk	-2.0881718412e+04	1.0778193390e+04	-2.1614972953e+03
1.3000000000e+01	default_to_pad2	-3.2252324433e+04	-1.5398830742e+04	-4.1864068725e+02
1.4000000000e+01	coolingDuct	-1.5313655122e+01	8.5758266842e+01	1.6880644276e-01
1.4000000000e+01	coolingDuct_slave	3.2424204134e+00	2.3146238672e+02	2.0574204036e+00
1.4000000000e+01	inlet_slave	-4.0657581468e-20	1.6263032587e-19	8.9906188567e-24
1.4000000000e+01	default_to_pad1	-4.6988306622e+04	-1.5395727232e+04	-4.7242784641e+02
1.4000000000e+01	default_to_disk	-2.0526354515e+04	1.1091922055e+04	-2.1509946697e+03
1.4000000000e+01	default_to_pad2	-3.1636502664e+04	-1.5538157737e+04	-4.1921675848e+02
1.5000000000e+01	coolingDuct	-2.5776869638e+01	8.2726288773e+01	1.0216330269e-01
1.5000000000e+01	coolingDuct_slave	2.6774656888e+00	1.8042596047e+02	2.1178913043e+00
1.5000000000e+01	inlet_slave	-2.7105054312e-20	1.3552527156e-19	8.1033589012e-24
1.5000000000e+01	default_to_pad1	-4.6472835464e+04	-1.4976662614e+04	-4.8313666609e+02
1.5000000000e+01	default_to_disk	-2.0264299722e+04	1.0505198615e+04	-2.1431666938e+03
1.5000000000e+01	default_to_pad2	-3.1071291255e+04	-1.5676707737e+04	-4.1953803237e+02
1.6000000000e+01	coolingDuct	-4.4442455796e+01	8.2551900937e+01	8.9504808323e-02
1.6000000000e+01	coolingDuct_slave	1.2962313082e+00	2.2134413570e+02	2.1859446113e+00
1.6000000000e+01	inlet_slave	-6.0986372202e-20	4.0657581468e-20	-3.5635966600e-24
1.6000000000e+01	default_to_pad1	-4.6090902189e+04	-1.4706814260e+04	-4.9304667285e+02
1.6000000000e+01	default_to_disk	-2.0032483299e+04	9.6392534309e+03	-2.1351411786e+03
1.6000000000e+01	default_to_pad2	-3.0616109868e+04	-1.5800278994e+04	-4.1938482351e+02
1.7000000000e+01	coolingDuct	-1.4710305232e+01	8.4037019537e+01	1.2796821278e-01
1.7000000000e+01	coolingDuct_slave	-2.8103093308e-01	1.7458925114e+02	2.2046283533e+00
1.7000000000e+01	inlet_slave	-3.3881317890e-20	8.1315162936e-20	5.7969188769e-24
1.7000000000e+01	default_to_pad1	-4.6400357268e+04	-1.4963990994e+04	-5.0199714818e+02
1.7000000000e+01	default_to_disk	-1.9829628770e+04	9.1423209351e+03	-2.1286380913e+03
1.7000000000e+01	default_to_pad2	-3.0213520952e+04	-1.5806000164e+04	-4.1891926048e+02
1.8000000000e+01	coolingDuct	-2.9404519583e+00	8.6350696622e+01	1.7384528592e-01
1.8000000000e+01	coolingDuct_slave	-1.4258876127e+00	1.8541682841e+02	2.1914237342e+00
1.8000000000e+01	inlet_slave	-6.7762635780e-20	1.3552527156e-20	-1.1470103135e-23
1.8000000000e+01	default_to_pad1	-4.6835668809e+04	-1.4505084653e+04	-5.1041871339e+02
1.8000000000e+01	default_to_disk	-1.9667694440e+04	8.7364969437e+03	-2.1248185052e+03
1.8000000000e+01	default_to_pad2	-2.9862642286e+04	-1.5686999387e+04	-4.1798745089e+02
1.9000000000e+01	coolingDuct	-1.6220630763e+00	8.8957479723e+01	1.9901062132e-01
1.9000000000e+01	coolingDuct_slave	-2.1558596020e+00	1.9314843157e+02	2.1685230183e+00
1.9000000000e+01	inlet_slave	-2.3716922523e-20	2.7105054312e-20	1.1673131803e-24
1.9000000000e+01	default_to_pad1	-4.7025580960e+04	-1.4613587764e+04	-5.1848838809e+02
1.9000000000e+01	default_to_disk	-1.9533834993e+04	8.0907378363e+03	-2.1224592862e+03
1.9000000000e+01	default_to_pad2	-2.9523673826e+04	-1.5601996565e+04	-4.1684711703e+02
2.0000000000e+01	coolingDuct	-7.5693377332e+00	1.2528059018e+01	5.1218807962e-03
2.0000000000e+01	coolingDuct_slave	-5.3335005356e+01	1.8954960785e+01	-5.6125838499e-02
2.0000000000e+01	inlet_slave	-1.3552527156e-20	1.3552527156e-20	6.9450119958e-25
2.0000000000e+01	default_to_pad1	-4.4158256797e+04	-1.3660163568e+04	-4.9217810467e+02
2.0000000000e+01	default_to_disk	-1.9338826490e+04	6.9386889718e+03	-2.0996851779e+03
2.0000000000e+01	default_to_pad2	-2.9153035649e+04	-1.5219669223e+04	-4.0994416174e+02
2.1000000000e+01	coolingDuct	-1.7307503708e+01	5.8246204893e+00	-1.2869627449e-02
2.1000000000e+01	coolingDuct_slave	-2.9431490282e+01	6.4948193920e+01	-4.8202095207e-02
2.1000000000e+01	inlet_slave	-2.7105054312e-20	0.0000000000e+00	-6.6042019525e-24
2.1000000000e+01	default_to_pad1	-4.3920199967e+04	-1.3446358250e+04	-4.9743813749e+02
2.1000000000e+01	default_to_disk	-1.9200410958e+04	5.6426760808e+03	-2.0958470939e+03
2.1000000000e+01	default_to_pad2	-2.8996156649e+04	-1.5076451262e+04	-4.0883843459e+02
2.2000000000e+01	coolingDuct	-2.1074969871e+01	5.1009863317e+00	-3.1584842081e-02
2.2000000000e+01	coolingDuct_slave	-2.9678207774e+01	2.2678342232e+01	-3.9827910358e-02
2.2000000000e+01	inlet_slave	-2.7105054312e-20	2.7105054312e-20	6.3398062967e-25
2.2000000000e+01	default_to_pad1	-4.4123656942e+04	-1.3821796931e+04	-5.0177462841e+02
2.2000000000e+01	default_to_disk	-1.9059800386e+04	6.0145800676e+03	-2.0916674101e+03
2.2000000000e+01	default_to_pad2	-2.8875288227e+04	-1.5004088161e+04	-4.0773570917e+02
2.3000000000e+01	coolingDuct	-1.8998657182e+01	4.9972876508e+00	-4.4128298984e-02
2.3000000000e+01	coolingDuct_slave	-9.7149247234e+01	2.4065963059e+01	-1.6596934176e-02
2.3000000000e+01	inlet_slave	-3.3881317890e-21	2.7105054312e-20	4.7092968485e-24
2.3000000000e+01	default_to_pad1	-4.4832929470e+04	-1.3262033953e+04	-5.0505248173e+02
2.3000000000e+01	default_to_disk	-1.8942263987e+04	6.5739451341e+03	-2.0889535960e+03
2.3000000000e+01	default_to_pad2	-2.8792534589e+04	-1.5142642025e+04	-4.0669090269e+02
2.4000000000e+01	coolingDuct	-1.6600978544e+01	5.2418410856e+00	-4.5419247872e-02
2.4000000000e+01	coolingDuct_slave	-1.1233292092e+02	2.4653873431e+01	9.4261875035e-03
2.4000000000e+01	inlet_slave	-1.3552527156e-20	6.7762635780e-21	-4.7590266146e-25
2.4000000000e+01	default_to_pad1	-4.5330945555e+04	-1.3543533797e+04	-5.0767770952e+02
2.4000000000e+01	default_to_disk	-1.8836974600e+04	7.1203155047e+03	-2.0847788671e+03
2.4000000000e+01	default_to_pad2	-2.8715215496e+04	-1.5500475183e+04	-4.0559628688e+02
2.5000000000e+01	coolingDuct	-1.4055314803e+01	5.5266337784e+00	-4.2175302931e-02
2.5000000000e+01	coolingDuct_slave	-2.1402954076e+01	5.1796796973e+01	2.9722450626e-02
2.5000000000e+01	inlet_slave	-1.3552527156e-20	1.6940658945e-21	-2.1087710652e-24
2.5000000000e+01	default_to_pad1	-4.5654234470e+04	-1.3783747958e+04	-5.1011593233e+02
2.5000000000e+01	default_to_disk	-1.8778642121e+04	7.4553835309e+03	-2.0830693329e+03
2.5000000000e+01	default_to_pad2	-2.8658881745e+04	-1.6017119416e+04	-4.0464523431e+02
2.6000000000e+01	coolingDuct	-1.2456129915e+01	5.5494316812e+00	-3.8833620061e-02
2.6000000000e+01	coolingDuct_slave	-2.4590361792e+01	2.8800941698e+01	3.3038639378e-02
2.6000000000e+01	inlet_slave	-2.0328790734e-20	1.3552527156e-20	1.5484037221e-25
2.6000000000e+01	default_to_pad1	-4.5796873098e+04	-1.3847185730e+04	-5.1229082787e+02
2.6000000000e+01	default_to_disk	-1.8747260521e+04	7.4589490528e+03	-2.0812451841e+03
2.6000000000e+01	default_to_pad2	-2.8610638423e+04	-1.6149519991e+04	-4.0403706937e+02
2.7000000000e+01	coolingDuct	-1.1413310028e+01	5.7726033130e+00	-3.6858108060e-02
2.7000000000e+01	coolingDuct_slave	-8.7157791700e+01	2.2535982379e+01	2.7911764194e-02
2.7000000000e+01	inlet_slave	-2.0328790734e-20	6.7762635780e-21	-5.5311776004e-25
2.7000000000e+01	default_to_pad1	-4.5830435812e+04	-1.3796279317e+04	-5.1414611341e+02
2.7000000000e+01	default_to_disk	-1.8733178455e+04	7.5904415289e+03	-2.0795164258e+03
2.7000000000e+01	default_to_pad2	-2.8570712535e+04	-1.6088215859e+04	-4.0388783254e+02
2.8000000000e+01	coolingDuct	-1.1054691685e+01	6.1566272623e+00	-3.7278781792e-02
2.8000000000e+01	coolingDuct_slave	-1.2036144332e+02	2.0856448054e+01	1.8941923153e-02
2.8000000000e+01	inlet_slave	-1.3552527156e-20	6.7762635780e-21	-6.3467828808e-25
2.8000000000e+01	default_to_pad1	-4.5813693940e+04	-1.3812219779e+04	-5.1592464596e+02
2.8000000000e+01	default_to_disk	-1.8729115140e+04	7.6157370803e+03	-2.0778304699e+03
2.8000000000e+01	default_to_pad2	-2.8537762121e+04	-1.5892425610e+04	-4.0411097949e+02
2.9000000000e+01	coolingDuct	-1.1215018563e+01	6.1302334748e+00	-3.9093074343e-02
2.9000000000e+01	coolingDuct_slave	-6.2700538733e+01	1.9262729422e+01	5.3839160229e-03
2.9000000000e+01	inlet_slave	-1.0164395367e-20	3.3881317890e-21	-9.3260380547e-25
2.9000000000e+01	default_to_pad1	-4.5771816090e+04	-1.4316744104e+04	-5.1754318894e+02
2.9000000000e+01	default_to_disk	-1.8721877919e+04	7.2856900585e+03	-2.0761581207e+03
2.9000000000e+01	default_to_pad2	-2.8509580397e+04	-1.5914030393e+04	-4.0465952231e+02
3.0000000000e+01	coolingDuct	-3.9416796579e+00	5.5664388353e+00	-2.0031786962e-02
3.0000000000e+01	coolingDuct_slave	-2.1453285518e+01	9.1812331389e+01	4.4487921825e-03
3.0000000000e+01	inlet_slave	-3.3881317890e-21	3.3881317890e-21	-1.6460472728e-25
3.0000000000e+01	default_to_pad1	-4.5064380821e+04	-1.4102943926e+04	-5.1063214146e+02
3.0000000000e+01	default_to_disk	-1.8707998476e+04	5.8235848981e+03	-2.0754506935e+03
3.0000000000e+01	default_to_pad2	-2.8719057286e+04	-1.6479294831e+04	-4.0919574449e+02
3.1000000000e+01	coolingDuct	-4.3285234577e+00	5.7714286870e+00	-2.1993802381e-02
3.1000000000e+01	coolingDuct_slave	-2.2493986933e+01	1.8946617886e+01	-2.4936334308e-02
3.1000000000e+01	inlet_slave	-6.7762635780e-21	3.3881317890e-21	3.3170782601e-25
3.1000000000e+01	default_to_pad1	-4.4965836490e+04	-1.4328810655e+04	-5.1198873645e+02
3.1000000000e+01	default_to_disk	-1.8684012127e+04	5.1049308412e+03	-2.0743192833e+03
3.1000000000e+01	default_to_pad2	-2.8696006326e+04	-1.6292821843e+04	-4.0994103440e+02
3.2000000000e+01	coolingDuct	-4.5811419937e+00	5.5297361895e+00	-2.2586144726e-02
3.2000000000e+01	coolingDuct_slave	-6.5239669900e+01	1.8801428283e+01	-5.8633599919e-02
3.2000000000e+01	inlet_slave	-1.6940658945e-21	3.3881317890e-21	1.3142862716e-25
3.2000000000e+01	default_to_pad1	-4.4837710403e+04	-1.4597595578e+04	-5.1317859890e+02
3.2000000000e+01	default_to_disk	-1.8650188071e+04	4.7697407337e+03	-2.0732480159e+03
3.2000000000e+01	default_to_pad2	-2.8675685074e+04	-1.6148920997e+04	-4.1050511121e+02
3.3000000000e+01	coolingDuct	-4.6258873068e+00	5.8304005724e+00	-2.2070759296e-02
3.3000000000e+01	coolingDuct_slave	-7.6204427201e+01	1.9214807087e+01	-9.6056829809e-02
3.3000000000e+01	inlet_slave	-3.3881317890e-21	1.6940658945e-21	-3.3144300819e-25
3.3000000000e+01	default_to_pad1	-4.4690786404e+04	-1.4952588861e+04	-5.1414352050e+02
3.3000000000e+01	default_to_disk	-1.8609358707e+04	3.9288441558e+03	-2.0730586687e+03
3.3000000000e+01	default_to_pad2	-2.8656511206e+04	-1.6100035349e+04	-4.1087242105e+02
3.4000000000e+01	coolingDuct	-4.5370690285e+00	5.6142180844e+00	-2.0305162893e-02
3.4000000000e+01	coolingDuct_slave	-2.4488303417e+01	2.2113833503e+01	-1.3878075127e-01
3.4000000000e+01	inlet_slave	-1.6940658945e-21	1.6940658945e-21	1.3029721560e-26
3.4000000000e+01	default_to_pad1	-4.4538694777e+04	-1.5142999631e+04	-5.1490422360e+02
3.4000000000e+01	default_to_disk	-1.8566040594e+04	3.8957960383e+03	-2.0734320885e+03
3.4000000000e+01	default_to_pad2	-2.8640167752e+04	-1.6168739597e+04	-4.1105848020e+02
3.5000000000e+01	coolingDuct	-5.4534267867e+00	6.0376978268e+00	-1.7698201284e-02
3.5000000000e+01	coolingDuct_slave	-2.5278756260e+01	5.7430525842e+01	-1.8631616566e-01
3.5000000000e+01	inlet_slave	-1.6940658945e-21	1.6940658945e-21	-1.2700893499e-25
3.5000000000e+01	default_to_pad1	-4.4376036824e+04	-1.5171192735e+04	-5.1549954722e+02
3.5000000000e+01	default_to_disk	-1.8519665651e+04	4.0640707242e+03	-2.0743518870e+03
3.5000000000e+01	default_to_pad2	-2.8625053152e+04	-1.6330993059e+04	-4.1110266030e+02
3.6000000000e+01	coolingDuct	-6.3002373905e+00	5.8092735966e+00	-1.4575133610e-02
3.6000000000e+01	coolingDuct_slave	-5.1094353424e+01	1.8222718794e+01	-2.3367474533e-01
3.6000000000e+01	inlet_slave	-3.3881317890e-21	1.2705494209e-21	-5.9294273121e-25
3.6000000000e+01	default_to_pad1	-4.4211428359e+04	-1.5014764125e+04	-5.1598802718e+02
3.6000000000e+01	default_to_disk	-1.8471944103e+04	4.3855205666e+03	-2.0752573925e+03
3.6000000000e+01	default_to_pad2	-2.8611531215e+04	-1.6461555913e+04	-4.1105508267e+02
3.7000000000e+01	coolingDuct	-6.8644146774e+00	6.2994663430e+00	-1.1712966127e-02
3.7000000000e+01	coolingDuct_slave	-6.2294258585e+01	1.7679052787e+01	-2.7187064685e-01
3.7000000000e+01	inlet_slave	-6.5645053412e-21	3.3881317890e-21	1.1780741211e-25
3.7000000000e+01	default_to_pad1	-4.4042016406e+04	-1.4918239684e+04	-5.1640144102e+02
3.7000000000e+01	default_to_disk	-1.8422554752e+04	4.7226080964e+03	-2.0762100957e+03
3.7000000000e+01	default_to_pad2	-2.8600786337e+04	-1.6581577951e+04	-4.1089104769e+02
3.8000000000e+01	coolingDuct	-7.2282780654e+00	7.3668958010e+00	-9.1523441271e-03
3.8000000000e+01	coolingDuct_slave	-5.5187970234e+01	1.6836094028e+01	-3.0431954492e-01
3.8000000000e+01	inlet_slave	-2.0540548971e-20	2.5410988418e-21	-2.2955131572e-24
3.8000000000e+01	default_to_pad1	-4.3875359236e+04	-1.4787275560e+04	-5.1676198819e+02
3.8000000000e+01	default_to_disk	-1.8372829056e+04	5.0605356597e+03	-2.0767351239e+03
3.8000000000e+01	default_to_pad2	-2.8592955892e+04	-1.6730725092e+04	-4.1058993373e+02
3.9000000000e+01	coolingDuct	-7.5230922660e+00	9.0329464583e+00	-6.8722744157e-03
3.9000000000e+01	coolingDuct_slave	-2.9263974375e+01	5.1007532312e+01	-3.2813534146e-01
3.9000000000e+01	inlet_slave	-6.7762635780e-21	2.6469779602e-21	-4.8779753847e-25
3.9000000000e+01	default_to_pad1	-4.3708868673e+04	-1.4684909543e+04	-5.1712132034e+02
3.9000000000e+01	default_to_disk	-1.8322812683e+04	5.3690762055e+03	-2.0773786047e+03
3.9000000000e+01	default_to_pad2	-2.8588320077e+04	-1.6665422207e+04	-4.1012891268e+02
4.0000000000e+01	coolingDuct	-5.4110824518e+00	7.3160972166e+00	4.0841511440e-03
4.0000000000e+01	coolingDuct_slave	-2.5380285548e+01	2.6816361678e+01	7.6639048483e-03
4.0000000000e+01	inlet_slave	-3.5998900258e-21	3.5998900258e-21	3.2418530411e-25
4.0000000000e+01	default_to_pad1	-4.3507829435e+04	-1.4762072323e+04	-5.1502963250e+02
4.0000000000e+01	default_to_disk	-1.8268952487e+04	5.4377900444e+03	-2.0760148863e+03
4.0000000000e+01	default_to_pad2	-2.8718051958e+04	-1.6448229101e+04	-4.0902912709e+02
4.1000000000e+01	coolingDuct	-7.1031666309e+00	8.0077480036e+00	5.2617112235e-03
4.1000000000e+01	coolingDuct_slave	-2.5835224511e+01	1.7570282096e+01	-5.9387670899e-03
4.1000000000e+01	inlet_slave	-2.7528570786e-21	2.3293406049e-21	1.4125200851e-25
4.1000000000e+01	default_to_pad1	-4.3349993472e+04	-1.4749373914e+04	-5.1541543179e+02
4.1000000000e+01	default_to_disk	-1.8219479455e+04	5.4995343862e+03	-2.0764002390e+03
4.1000000000e+01	default_to_pad2	-2.8718755146e+04	-1.6233790263e+04	-4.0815055448e+02
4.2000000000e+01	coolingDuct	-4.0289230425e+00	9.4586049930e+00	6.3747107430e-03
4.2000000000e+01	coolingDuct_slave	-2.6934026765e+01	1.7415637298e+01	-1.3869752818e-02
4.2000000000e+01	inlet_slave	-1.2705494209e-21	1.0587911841e-22	-1.9686343888e-25
4.2000000000e+01	default_to_pad1	-4.3204402977e+04	-1.4744191796e+04	-5.1577651790e+02
4.2000000000e+01	default_to_disk	-1.8173226588e+04	5.3778111750e+03	-2.0765687178e+03
4.2000000000e+01	default_to_pad2	-2.8721350626e+04	-1.6010495135e+04	-4.0704533063e+02
4.3000000000e+01	coolingDuct	-2.5009490793e+00	1.0987980799e+01	7.3941086489e-03
4.3000000000e+01	coolingDuct_slave	-2.6057757169e+01	1.7514637406e+01	-1.8809036104e-02
4.3000000000e+01	inlet_slave	-1.0587911841e-22	1.5881867761e-22	-1.2387070288e-27
4.3000000000e+01	default_to_pad1	-4.3064163962e+04	-1.4732476905e+04	-5.1609053667e+02
4.3000000000e+01	default_to_disk	-1.8129010186e+04	5.1714421352e+03	-2.0768576802e+03
4.3000000000e+01	default_to_pad2	-2.8725535190e+04	-1.5796135593e+04	-4.0574469658e+02
4.4000000000e+01	coolingDuct	-1.9463818985e+00	1.2664564029e+01	8.1612980671e-03
4.4000000000e+01	coolingDuct_slave	-2.5907932631e+01	5.6578974494e+01	-1.9173439743e-02
4.4000000000e+01	inlet_slave	-2.3161057151e-23	7.9409338805e-23	6.1085695405e-27
4.4000000000e+01	default_to_pad1	-4.2934078632e+04	-1.4708631113e+04	-5.1640314397e+02
4.4000000000e+01	default_to_disk	-1.8087819312e+04	5.0230693819e+03	-2.0771377632e+03
4.4000000000e+01	default_to_pad2	-2.8731344761e+04	-1.5619070272e+04	-4.0434863663e+02
4.5000000000e+01	coolingDuct	-1.9285588483e+00	1.4096958243e+01	8.4417872896e-03
4.5000000000e+01	coolingDuct_slave	-2.5646582285e+01	1.8149806054e+01	-2.0648125246e-02
4.5000000000e+01	inlet_slave	-2.3822801642e-22	7.9409338805e-23	-1.6070250089e-27
4.5000000000e+01	default_to_pad1	-4.2807615036e+04	-1.4702480897e+04	-5.1663398619e+02
4.5000000000e+01	default_to_disk	-1.8049073545e+04	5.0812805360e+03	-2.0776701340e+03
4.5000000000e+01	default_to_pad2	-2.8738912098e+04	-1.5504157208e+04	-4.0304560934e+02
4.6000000000e+01	coolingDuct	-1.9061853237e+00	1.5334963391e+01	8.6086281152e-03
4.6000000000e+01	coolingDuct_slave	-2.5226035837e+01	1.8606356108e+01	-1.8988226655e-02
4.6000000000e+01	inlet_slave	-1.0587911841e-22	2.6469779602e-23	-1.7045613006e-26
4.6000000000e+01	default_to_pad1	-4.2688376601e+04	-1.4751902381e+04	-5.1690246612e+02
4.6000000000e+01	default_to_disk	-1.8013127536e+04	5.5302961988e+03	-2.0778815478e+03
4.6000000000e+01	default_to_pad2	-2.8748193707e+04	-1.5455232071e+04	-4.0189656403e+02
4.7000000000e+01	coolingDuct	-2.6834369300e+00	1.6217589298e+01	7.9152895463e-03
4.7000000000e+01	coolingDuct_slave	-2.4825510019e+01	1.9080337661e+01	-1.6076744268e-02
4.7000000000e+01	inlet_slave	-7.9409338805e-23	5.2939559203e-23	-3.2358581073e-27
4.7000000000e+01	default_to_pad1	-4.2571366021e+04	-1.4850519575e+04	-5.1705071044e+02
4.7000000000e+01	default_to_disk	-1.7977893572e+04	5.7694705701e+03	-2.0780412627e+03
4.7000000000e+01	default_to_pad2	-2.8758753543e+04	-1.5461439659e+04	-4.0095763476e+02
4.8000000000e+01	coolingDuct	-1.8657163482e+00	1.6250403587e+01	7.7730137007e-03
4.8000000000e+01	coolingDuct_slave	-2.4372470444e+01	1.9476691296e+01	-1.2386829576e-02
4.8000000000e+01	inlet_slave	-3.9704669403e-23	2.6469779602e-22	2.2606808680e-26
4.8000000000e+01	default_to_pad1	-4.2460960233e+04	-1.4981902076e+04	-5.1712264116e+02
4.8000000000e+01	default_to_disk	-1.7945842669e+04	5.8423868902e+03	-2.0778753476e+03
4.8000000000e+01	default_to_pad2	-2.8769360329e+04	-1.5493880184e+04	-4.0027578142e+02
4.9000000000e+01	coolingDuct	-4.5025103375e+00	1.5552064959e+01	6.6937406588e-03
4.9000000000e+01	coolingDuct_slave	-2.3991479229e+01	4.6761180854e+01	-8.4585471910e-03
4.9000000000e+01	inlet_slave	-1.8528845721e-22	1.2573145311e-22	-1.5433338736e-27
4.9000000000e+01	default_to_pad1	-4.2352280884e+04	-1.5094726178e+04	-5.1713220527e+02
4.9000000000e+01	default_to_disk	-1.7915836719e+04	5.9258878487e+03	-2.0777698632e+03
4.9000000000e+01	default_to_pad2	-2.8778832191e+04	-1.5515805775e+04	-3.9988073465e+02
5.0000000000e+01	coolingDuct	-3.9450350105e+00	7.8059947196e+00	3.0211394544e-03
5.0000000000e+01	coolingDuct_slave	-2.1467330955e+01	2.1504205227e+01	-8.3677879258e-04
5.0000000000e+01	inlet_slave	-2.8951321439e-23	1.3234889801e-22	1.0831117059e-26
5.0000000000e+01	default_to_pad1	-4.2068025141e+04	-1.5153806968e+04	-5.1636402651e+02
5.0000000000e+01	default_to_disk	-1.7884724907e+04	5.7883741229e+03	-2.0770056291e+03
5.0000000000e+01	default_to_pad2	-2.8891366131e+04	-1.5695974345e+04	-4.0360408683e+02
