# Force          
# CofR           : ( 0.0000000000e+00 0.0000000000e+00 0.0000000000e+00 )
#                
# Time           	(total_x total_y total_z)	(pressure_x pressure_y pressure_z)	(viscous_x viscous_y viscous_z)
50               	( -3.1440182218e+03 -4.2989934873e+03 3.2720525977e+03 )	( -3.1236597232e+03 -4.2874459131e+03 3.2711400612e+03 )	( -2.0358498653e+01 -1.1547574265e+01 9.1253647935e-01 )
