# Wall heat-flux 
# Time           	patch            	min              	max              	integral         
1.0000000000e+00	disk_to_default	-6.4826380307e+01	6.8807792722e+03	8.1770211904e+02
1.0000000000e+00	disk_to_pad2	-6.6868150382e+04	-5.4174646222e+04	-8.6527001555e+02
1.0000000000e+00	disk_to_pad1	-6.6060423613e+04	-5.3244466270e+04	-8.5373853672e+02
2.0000000000e+00	disk_to_default	-1.5907196451e+02	9.4991020950e+03	1.2538162850e+03
2.0000000000e+00	disk_to_pad2	-1.2684529592e+05	-9.6240851129e+04	-1.6319685824e+03
2.0000000000e+00	disk_to_pad1	-1.2594510215e+05	-9.9340987902e+04	-1.6405269195e+03
3.0000000000e+00	disk_to_default	-1.8285408086e+03	1.1925797834e+04	1.5363642546e+03
3.0000000000e+00	disk_to_pad2	-9.3421977322e+04	-7.0722875879e+04	-1.2024987720e+03
3.0000000000e+00	disk_to_pad1	-9.3071644526e+04	-7.2851554344e+04	-1.2109951498e+03
4.0000000000e+00	disk_to_default	-4.0499652008e+03	1.4480696319e+04	1.7877460004e+03
4.0000000000e+00	disk_to_pad2	-8.7916851170e+04	-6.5953519109e+04	-1.1313199910e+03
4.0000000000e+00	disk_to_pad1	-8.7670557383e+04	-6.8214666669e+04	-1.1389556993e+03
5.0000000000e+00	disk_to_default	-5.9980144928e+03	1.6896583701e+04	1.9472381153e+03
5.0000000000e+00	disk_to_pad2	-8.6475986521e+04	-6.4747866637e+04	-1.1137861127e+03
5.0000000000e+00	disk_to_pad1	-8.6460602595e+04	-6.6330990898e+04	-1.1187949843e+03
6.0000000000e+00	disk_to_default	-7.6457514755e+03	1.8827248425e+04	2.0374902146e+03
6.0000000000e+00	disk_to_pad2	-8.5386010601e+04	-6.4183097617e+04	-1.1016325434e+03
6.0000000000e+00	disk_to_pad1	-8.5579641973e+04	-6.4520573828e+04	-1.1025771385e+03
7.0000000000e+00	disk_to_default	-9.3177202302e+03	2.1276618140e+04	2.0841835650e+03
7.0000000000e+00	disk_to_pad2	-8.4544088200e+04	-6.4353289615e+04	-1.0941085459e+03
7.0000000000e+00	disk_to_pad1	-8.5065803689e+04	-6.2958985820e+04	-1.0903208406e+03
8.0000000000e+00	disk_to_default	-1.0494225141e+04	2.2604141175e+04	2.1045707423e+03
8.0000000000e+00	disk_to_pad2	-8.3926768366e+04	-6.4562178699e+04	-1.0881741878e+03
8.0000000000e+00	disk_to_pad1	-8.4831119192e+04	-6.1581173330e+04	-1.0807700233e+03
9.0000000000e+00	disk_to_default	-1.0939262011e+04	2.3001195484e+04	2.1093284673e+03
9.0000000000e+00	disk_to_pad2	-8.3510573326e+04	-6.4303366716e+04	-1.0838599183e+03
9.0000000000e+00	disk_to_pad1	-8.4765648860e+04	-5.9848776665e+04	-1.0731973182e+03
1.0000000000e+01	disk_to_default	-1.1551807221e+04	2.2714529962e+04	2.0970461452e+03
1.0000000000e+01	disk_to_pad2	-8.3332858535e+04	-6.4474606830e+04	-1.0827822895e+03
1.0000000000e+01	disk_to_pad1	-8.4778220561e+04	-5.8040124118e+04	-1.0673183755e+03
1.1000000000e+01	disk_to_default	-1.0785674943e+04	2.2115276270e+04	2.0871002778e+03
1.1000000000e+01	disk_to_pad2	-8.3279712975e+04	-6.4665223834e+04	-1.0825349254e+03
1.1000000000e+01	disk_to_pad1	-8.4706515124e+04	-5.6456504417e+04	-1.0615220528e+03
1.2000000000e+01	disk_to_default	-9.6275116882e+03	2.1453825488e+04	2.0793438054e+03
1.2000000000e+01	disk_to_pad2	-8.3316999892e+04	-6.4875459839e+04	-1.0828183246e+03
1.2000000000e+01	disk_to_pad1	-8.4522188921e+04	-5.5218304011e+04	-1.0558244595e+03
1.3000000000e+01	disk_to_default	-9.8884597734e+03	2.0868948664e+04	2.0724543601e+03
1.3000000000e+01	disk_to_pad2	-8.3381009878e+04	-6.5055399220e+04	-1.0831688424e+03
1.3000000000e+01	disk_to_pad1	-8.4032855233e+04	-5.4348702908e+04	-1.0501704419e+03
1.4000000000e+01	disk_to_default	-1.0446037120e+04	2.0398383716e+04	2.0639287514e+03
1.4000000000e+01	disk_to_pad2	-8.3474533541e+04	-6.5214171151e+04	-1.0838152055e+03
1.4000000000e+01	disk_to_pad1	-8.3237116673e+04	-5.3798556712e+04	-1.0438370826e+03
1.5000000000e+01	disk_to_default	-9.9190007378e+03	2.0089821860e+04	2.0595361924e+03
1.5000000000e+01	disk_to_pad2	-8.3582234214e+04	-6.5378130948e+04	-1.0845103412e+03
1.5000000000e+01	disk_to_pad1	-8.2425649067e+04	-5.3558145335e+04	-1.0362272388e+03
1.6000000000e+01	disk_to_default	-9.1351833969e+03	1.9795142770e+04	2.0535518984e+03
1.6000000000e+01	disk_to_pad2	-8.3682401666e+04	-6.5525287416e+04	-1.0851218638e+03
1.6000000000e+01	disk_to_pad1	-8.1705609129e+04	-5.3516569451e+04	-1.0280672837e+03
1.7000000000e+01	disk_to_default	-8.7537870697e+03	1.9559670980e+04	2.0492399943e+03
1.7000000000e+01	disk_to_pad2	-8.3794918711e+04	-6.5667041502e+04	-1.0860093367e+03
1.7000000000e+01	disk_to_pad1	-8.1293435476e+04	-5.3722305408e+04	-1.0225548171e+03
1.8000000000e+01	disk_to_default	-8.4450709479e+03	1.9362118228e+04	2.0475088762e+03
1.8000000000e+01	disk_to_pad2	-8.3929974406e+04	-6.5782678842e+04	-1.0872378235e+03
1.8000000000e+01	disk_to_pad1	-8.1179337943e+04	-5.3907053056e+04	-1.0176456498e+03
1.9000000000e+01	disk_to_default	-7.8637048918e+03	1.9204058965e+04	2.0472230999e+03
1.9000000000e+01	disk_to_pad2	-8.4082607986e+04	-6.5908025152e+04	-1.0886973997e+03
1.9000000000e+01	disk_to_pad1	-8.0986230982e+04	-5.4140316967e+04	-1.0130727185e+03
2.0000000000e+01	disk_to_default	-6.8401206528e+03	1.9072337721e+04	2.0481741528e+03
2.0000000000e+01	disk_to_pad2	-8.4153173722e+04	-6.6021207056e+04	-1.0900129986e+03
2.0000000000e+01	disk_to_pad1	-8.0759241528e+04	-5.4418679012e+04	-1.0083463814e+03
2.1000000000e+01	disk_to_default	-5.5789558245e+03	1.8953690583e+04	2.0480129557e+03
2.1000000000e+01	disk_to_pad2	-8.4156726755e+04	-6.6087452186e+04	-1.0910412949e+03
2.1000000000e+01	disk_to_pad1	-8.0645988731e+04	-5.4717499415e+04	-1.0044291386e+03
2.2000000000e+01	disk_to_default	-6.0464935791e+03	1.8837066363e+04	2.0468883062e+03
2.2000000000e+01	disk_to_pad2	-8.4135312674e+04	-6.6152777242e+04	-1.0919127330e+03
2.2000000000e+01	disk_to_pad1	-8.0570398239e+04	-5.4988974296e+04	-1.0012346697e+03
2.3000000000e+01	disk_to_default	-6.5907839787e+03	1.8739133641e+04	2.0470584859e+03
2.3000000000e+01	disk_to_pad2	-8.4072864909e+04	-6.6235323941e+04	-1.0927519278e+03
2.3000000000e+01	disk_to_pad1	-8.0500292995e+04	-5.5221207308e+04	-9.9860868387e+02
2.4000000000e+01	disk_to_default	-7.1156815696e+03	1.8636186315e+04	2.0452073593e+03
2.4000000000e+01	disk_to_pad2	-8.3981227739e+04	-6.6330657001e+04	-1.0934466021e+03
2.4000000000e+01	disk_to_pad1	-8.0424150388e+04	-5.5431712649e+04	-9.9664360321e+02
2.5000000000e+01	disk_to_default	-7.4164122891e+03	1.8592332260e+04	2.0456413027e+03
2.5000000000e+01	disk_to_pad2	-8.4057531717e+04	-6.6423998664e+04	-1.0938697139e+03
2.5000000000e+01	disk_to_pad1	-8.0336866914e+04	-5.5649410133e+04	-9.9520326168e+02
2.6000000000e+01	disk_to_default	-7.4048786375e+03	1.8560659745e+04	2.0453109677e+03
2.6000000000e+01	disk_to_pad2	-8.4036883667e+04	-6.6525388721e+04	-1.0940438245e+03
2.6000000000e+01	disk_to_pad1	-8.0195688516e+04	-5.5860384990e+04	-9.9382619629e+02
2.7000000000e+01	disk_to_default	-7.4502796272e+03	1.8551569488e+04	2.0452989488e+03
2.7000000000e+01	disk_to_pad2	-8.3929269654e+04	-6.6623169956e+04	-1.0937376302e+03
2.7000000000e+01	disk_to_pad1	-8.0024245349e+04	-5.6057489938e+04	-9.9256135744e+02
2.8000000000e+01	disk_to_default	-7.4930243202e+03	1.8554986976e+04	2.0452725316e+03
2.8000000000e+01	disk_to_pad2	-8.3756426614e+04	-6.6703400859e+04	-1.0931207192e+03
2.8000000000e+01	disk_to_pad1	-7.9854733008e+04	-5.6235694999e+04	-9.9143192811e+02
2.9000000000e+01	disk_to_default	-7.0648931378e+03	1.8557250957e+04	2.0453214117e+03
2.9000000000e+01	disk_to_pad2	-8.3538394995e+04	-6.6754278801e+04	-1.0921941557e+03
2.9000000000e+01	disk_to_pad1	-7.9687553895e+04	-5.6393204956e+04	-9.9028343620e+02
3.0000000000e+01	disk_to_default	-5.8226005056e+03	1.8558379377e+04	2.0455063013e+03
3.0000000000e+01	disk_to_pad2	-8.3312003870e+04	-6.6781666580e+04	-1.0911547047e+03
3.0000000000e+01	disk_to_pad1	-7.9507294099e+04	-5.6534990641e+04	-9.8917007690e+02
3.1000000000e+01	disk_to_default	-5.0780060434e+03	1.8542900706e+04	2.0455687688e+03
3.1000000000e+01	disk_to_pad2	-8.3101051230e+04	-6.6802552694e+04	-1.0902130785e+03
3.1000000000e+01	disk_to_pad1	-7.9299098957e+04	-5.6671021899e+04	-9.8814832213e+02
3.2000000000e+01	disk_to_default	-4.7183030886e+03	1.8521725267e+04	2.0461648324e+03
3.2000000000e+01	disk_to_pad2	-8.2963108218e+04	-6.6823179092e+04	-1.0895671278e+03
3.2000000000e+01	disk_to_pad1	-7.9061668563e+04	-5.6805870300e+04	-9.8720638567e+02
3.3000000000e+01	disk_to_default	-3.8489318739e+03	1.8484916858e+04	2.0472222238e+03
3.3000000000e+01	disk_to_pad2	-8.2983934808e+04	-6.6831681978e+04	-1.0891683193e+03
3.3000000000e+01	disk_to_pad1	-7.8796676965e+04	-5.6944963246e+04	-9.8638668499e+02
3.4000000000e+01	disk_to_default	-3.9238680123e+03	1.8444934726e+04	2.0484641690e+03
3.4000000000e+01	disk_to_pad2	-8.3017742294e+04	-6.6838992125e+04	-1.0891335317e+03
3.4000000000e+01	disk_to_pad1	-7.8500712912e+04	-5.7090823891e+04	-9.8576929064e+02
3.5000000000e+01	disk_to_default	-4.0816823722e+03	1.8405925015e+04	2.0501942201e+03
3.5000000000e+01	disk_to_pad2	-8.3051796396e+04	-6.6835173015e+04	-1.0892270173e+03
3.5000000000e+01	disk_to_pad1	-7.8169486909e+04	-5.7239327171e+04	-9.8534065208e+02
3.6000000000e+01	disk_to_default	-4.3517375877e+03	1.8364069887e+04	2.0516669941e+03
3.6000000000e+01	disk_to_pad2	-8.3085837086e+04	-6.6825429625e+04	-1.0893580938e+03
3.6000000000e+01	disk_to_pad1	-7.7872089720e+04	-5.7385662270e+04	-9.8506573090e+02
3.7000000000e+01	disk_to_default	-4.6825020253e+03	1.8319293757e+04	2.0531237829e+03
3.7000000000e+01	disk_to_pad2	-8.3123332669e+04	-6.6815558931e+04	-1.0895610627e+03
3.7000000000e+01	disk_to_pad1	-7.7629390599e+04	-5.7527017229e+04	-9.8488685005e+02
3.8000000000e+01	disk_to_default	-5.0104816518e+03	1.8274869610e+04	2.0541683290e+03
3.8000000000e+01	disk_to_pad2	-8.3163506857e+04	-6.6810247331e+04	-1.0898220771e+03
3.8000000000e+01	disk_to_pad1	-7.7350825643e+04	-5.7659455683e+04	-9.8476657302e+02
3.9000000000e+01	disk_to_default	-5.3055044595e+03	1.8229967649e+04	2.0553202658e+03
3.9000000000e+01	disk_to_pad2	-8.3206475526e+04	-6.6809887563e+04	-1.0901738634e+03
3.9000000000e+01	disk_to_pad1	-7.7434833825e+04	-5.7782085720e+04	-9.8467363310e+02
4.0000000000e+01	disk_to_default	-5.5172708460e+03	1.8188234602e+04	2.0564208961e+03
4.0000000000e+01	disk_to_pad2	-8.3255285014e+04	-6.6820765322e+04	-1.0906811223e+03
4.0000000000e+01	disk_to_pad1	-7.7728673244e+04	-5.7892474254e+04	-9.8455919536e+02
4.1000000000e+01	disk_to_default	-5.5515586577e+03	1.8145255429e+04	2.0575468323e+03
4.1000000000e+01	disk_to_pad2	-8.3308776411e+04	-6.6843055790e+04	-1.0913572675e+03
4.1000000000e+01	disk_to_pad1	-7.7981960666e+04	-5.7991080705e+04	-9.8442022032e+02
4.2000000000e+01	disk_to_default	-5.4041806468e+03	1.8103528935e+04	2.0583708328e+03
4.2000000000e+01	disk_to_pad2	-8.3365051846e+04	-6.6876080290e+04	-1.0922036575e+03
4.2000000000e+01	disk_to_pad1	-7.8200027345e+04	-5.8078285211e+04	-9.8426143106e+02
4.3000000000e+01	disk_to_default	-5.1832358480e+03	1.8064048778e+04	2.0594050440e+03
4.3000000000e+01	disk_to_pad2	-8.3425402354e+04	-6.6912373249e+04	-1.0932111330e+03
4.3000000000e+01	disk_to_pad1	-7.8378115785e+04	-5.8155069142e+04	-9.8410625845e+02
4.4000000000e+01	disk_to_default	-5.0346960952e+03	1.8027881736e+04	2.0605857223e+03
4.4000000000e+01	disk_to_pad2	-8.3486179090e+04	-6.6951184498e+04	-1.0943485452e+03
4.4000000000e+01	disk_to_pad1	-7.8514888724e+04	-5.8221790614e+04	-9.8396035107e+02
4.5000000000e+01	disk_to_default	-5.1083191316e+03	1.7993120418e+04	2.0619251955e+03
4.5000000000e+01	disk_to_pad2	-8.3545949668e+04	-6.6982946337e+04	-1.0954608665e+03
4.5000000000e+01	disk_to_pad1	-7.8607814527e+04	-5.8280576818e+04	-9.8379640458e+02
4.6000000000e+01	disk_to_default	-5.5401193263e+03	1.7961788396e+04	2.0630391874e+03
4.6000000000e+01	disk_to_pad2	-8.3602599632e+04	-6.7010479604e+04	-1.0963942961e+03
4.6000000000e+01	disk_to_pad1	-7.8672346365e+04	-5.8335723942e+04	-9.8366239331e+02
4.7000000000e+01	disk_to_default	-5.7521036002e+03	1.7928847689e+04	2.0639808597e+03
4.7000000000e+01	disk_to_pad2	-8.3654711334e+04	-6.7025586997e+04	-1.0970389353e+03
4.7000000000e+01	disk_to_pad1	-7.8708594656e+04	-5.8383239884e+04	-9.8349137171e+02
4.8000000000e+01	disk_to_default	-5.7889496565e+03	1.7898905098e+04	2.0646312477e+03
4.8000000000e+01	disk_to_pad2	-8.3695234362e+04	-6.7033635127e+04	-1.0973441522e+03
4.8000000000e+01	disk_to_pad1	-7.8733312992e+04	-5.8430384976e+04	-9.8338842298e+02
4.9000000000e+01	disk_to_default	-5.8454857923e+03	1.7868611288e+04	2.0652073880e+03
4.9000000000e+01	disk_to_pad2	-8.3721802538e+04	-6.7027701973e+04	-1.0973657913e+03
4.9000000000e+01	disk_to_pad1	-7.8747325444e+04	-5.8477762261e+04	-9.8334352454e+02
5.0000000000e+01	disk_to_default	-5.7752638885e+03	1.7843540258e+04	2.0655611632e+03
5.0000000000e+01	disk_to_pad2	-8.3734651622e+04	-6.7014290701e+04	-1.0971709556e+03
5.0000000000e+01	disk_to_pad1	-7.8756268899e+04	-5.8524775371e+04	-9.8332984017e+02
