# Time           	U.airmin         	at location      	U.airmax         	at location      	U.airmean        	U.airstDev       	pmin             	at location      	pmax             	at location      	pmean            	pstDev           	T.airmin         	at location      	T.airmax         	at location      	T.airmean        	T.airstDev       
0.0116794        7.5412873079e-04 ( 2.8565217390e-01 5.7761903525e-01 7.3000000000e-03 ) 6.3375647465e-01 ( 2.9499993500e-01 5.4379924760e-02 7.3000000000e-03 ) 3.6285157232e-02 4.0164940169e-02 -9.3807093543e+01 ( 2.6026086960e-01 2.2028500855e-01 7.3000000000e-03 ) 1.1319378605e+04 ( 6.3478260850e-03 2.9999350000e-03 7.3000000000e-03 ) 2.4217434449e+02 1.0828415979e+03 3.0000000000e+02 ( 6.3478260850e-03 2.9999350000e-03 7.3000000000e-03 ) 3.0000000000e+02 ( 6.3478260850e-03 2.9999350000e-03 7.3000000000e-03 ) 3.0000000000e+02 2.9558577808e-12 
