# Time           	Umin             	at location      	Umax             	at location      	Umean            	UstDev           	pmin             	at location      	pmax             	at location      	pmean            	pstDev           
25               9.7463892533e-02 ( 2.0000000000e+01 4.0000000000e+01 2.9829593285e-01 ) 1.3523906979e+01 ( 3.5999999911e+01 1.4399999996e+02 3.2365976300e+02 ) 8.7813281884e+00 1.0689681506e+00 -5.6070518042e+01 ( 4.0000000000e+00 -1.4400000000e+02 6.2444579920e+01 ) 5.2367000403e+01 ( 4.0002574687e+00 1.4399974253e+02 3.3709803769e+02 ) -9.2459847817e-01 3.5386406728e+00 
