# Time           	massFlux         	Umin             	Umax             	Umean            	UstDev           	pmin             	pmax             	pmean            	pstDev           
10 -0.2354 1.645030187 2.586260181 2.161370089 0.2849544634 -0.9571914556 1.478651546 -0.2513575326 0.8894891278
