# Moment         
# CofR           : ( 0.0000000000e+00 0.0000000000e+00 0.0000000000e+00 )
#                
# Time           	(total_x total_y total_z)	(pressure_x pressure_y pressure_z)	(viscous_x viscous_y viscous_z)
1                	( -9.5052887899e-01 2.8000018919e+00 2.0866620940e+00 )	( -9.4842714006e-01 2.8054739417e+00 2.0766657432e+00 )	( -2.1017389328e-03 -5.4720497498e-03 9.9963507490e-03 )
2                	( -4.2968077633e-01 1.4612508344e+00 1.0674620918e+00 )	( -4.2787356047e-01 1.4661213588e+00 1.0587612072e+00 )	( -1.8072158677e-03 -4.8705243541e-03 8.7008846143e-03 )
3                	( 7.6165196309e-02 1.4208551185e-01 3.8349940402e-02 )	( 7.7984203257e-02 1.4723124393e-01 2.9387519567e-02 )	( -1.8190069477e-03 -5.1457320775e-03 8.9624208350e-03 )
4                	( 2.4667950931e-01 -3.2241400492e-01 -3.5182670785e-01 )	( 2.4821696338e-01 -3.1776380126e-01 -3.5969993342e-01 )	( -1.5374540709e-03 -4.6502036602e-03 7.8732255664e-03 )
5                	( 1.4371450888e-01 -1.1301214573e-01 -1.9880329637e-01 )	( 1.4505758129e-01 -1.0891834783e-01 -2.0577496349e-01 )	( -1.3430724147e-03 -4.0937979002e-03 6.9716671223e-03 )
6                	( -2.0226940442e-02 2.4875019938e-01 9.5346514228e-02 )	( -1.8989754305e-02 2.5229949029e-01 8.9044082443e-02 )	( -1.2371861375e-03 -3.5492909130e-03 6.3024317850e-03 )
7                	( -1.1272693105e-01 4.5995365433e-01 2.7533484850e-01 )	( -1.1153528083e-01 4.6316383104e-01 2.6940679980e-01 )	( -1.1916502217e-03 -3.2101767085e-03 5.9280486976e-03 )
8                	( -1.1550841434e-01 4.7846296417e-01 2.9512628403e-01 )	( -1.1434295365e-01 4.8150359637e-01 2.8941118179e-01 )	( -1.1654606907e-03 -3.0406322046e-03 5.7151022388e-03 )
9                	( -7.5591989205e-02 4.0679068337e-01 2.3189976973e-01 )	( -7.4456941685e-02 4.0971137469e-01 2.2636560276e-01 )	( -1.1350475190e-03 -2.9206913137e-03 5.5341669765e-03 )
10               	( -4.2091150547e-02 3.4712857486e-01 1.7255588647e-01 )	( -4.1003605535e-02 3.4989986920e-01 1.6725003013e-01 )	( -1.0875450115e-03 -2.7712943414e-03 5.3058563451e-03 )
11               	( -3.3251879817e-02 3.3554528562e-01 1.5309381717e-01 )	( -3.2219981359e-02 3.3813206920e-01 1.4804980539e-01 )	( -1.0318984571e-03 -2.5867835808e-03 5.0440117846e-03 )
12               	( -3.8948299420e-02 3.4628547996e-01 1.5922638580e-01 )	( -3.7968906993e-02 3.4868212166e-01 1.5443359779e-01 )	( -9.7939242659e-04 -2.3966417085e-03 4.7927880009e-03 )
13               	( -4.6293959087e-02 3.5582579570e-01 1.7001835701e-01 )	( -4.5355916271e-02 3.5805773327e-01 1.6543064831e-01 )	( -9.3804281648e-04 -2.2319375652e-03 4.5877086998e-03 )
14               	( -4.9082496200e-02 3.5607709606e-01 1.7447695283e-01 )	( -4.8174558099e-02 3.5818206668e-01 1.7004242777e-01 )	( -9.0793810099e-04 -2.1049706215e-03 4.4345250574e-03 )
15               	( -4.7619593540e-02 3.5071500635e-01 1.7238276006e-01 )	( -4.6734272728e-02 3.5272243888e-01 1.6806523127e-01 )	( -8.8532081186e-04 -2.0074325324e-03 4.3175287925e-03 )
16               	( -4.5070839946e-02 3.4616041030e-01 1.6834834062e-01 )	( -4.4204887492e-02 3.4808473071e-01 1.6413219149e-01 )	( -8.6595245366e-04 -1.9243204090e-03 4.2161491299e-03 )
17               	( -4.3794986338e-02 3.4576285902e-01 1.6611128676e-01 )	( -4.2947487532e-02 3.4760876304e-01 1.6199195913e-01 )	( -8.4749880674e-04 -1.8459040277e-03 4.1193276347e-03 )
18               	( -4.3998166348e-02 3.4828922429e-01 1.6620624238e-01 )	( -4.3168542562e-02 3.5005782865e-01 1.6218147320e-01 )	( -8.2962378527e-04 -1.7686043595e-03 4.0247691800e-03 )
19               	( -4.4729189020e-02 3.5092256474e-01 1.6725345975e-01 )	( -4.3915584587e-02 3.5261783056e-01 1.6331520065e-01 )	( -8.1360443279e-04 -1.6952658159e-03 3.9382590949e-03 )
20               	( -4.5117105085e-02 3.5188552238e-01 1.6783950953e-01 )	( -4.4316584381e-02 3.5351565766e-01 1.6397439456e-01 )	( -8.0052070382e-04 -1.6301352846e-03 3.8651149697e-03 )
21               	( -4.4949724671e-02 3.5114545614e-01 1.6749891571e-01 )	( -4.4159244583e-02 3.5272006111e-01 1.6369289647e-01 )	( -7.9048008745e-04 -1.5746049690e-03 3.8060192370e-03 )
22               	( -4.4540567316e-02 3.4988085886e-01 1.6670186788e-01 )	( -4.3757536681e-02 3.5140941222e-01 1.6294263473e-01 )	( -7.8303063512e-04 -1.5285533556e-03 3.7592331426e-03 )
23               	( -4.4265298877e-02 3.4921753295e-01 1.6610043324e-01 )	( -4.3488049933e-02 3.5070716526e-01 1.6237989871e-01 )	( -7.7724894385e-04 -1.4896323085e-03 3.7205345283e-03 )
24               	( -4.4278546715e-02 3.4952836672e-01 1.6600399621e-01 )	( -4.3506065287e-02 3.5098428597e-01 1.6231709464e-01 )	( -7.7248142744e-04 -1.4559192521e-03 3.6869015726e-03 )
25               	( -4.4470032382e-02 3.5037677695e-01 1.6625736661e-01 )	( -4.3701617324e-02 3.5180320344e-01 1.6260019429e-01 )	( -7.6841505799e-04 -1.4264264949e-03 3.6571723228e-03 )
26               	( -4.4681490941e-02 3.5123486678e-01 1.6658254897e-01 )	( -4.3916620684e-02 3.5263497418e-01 1.6295212194e-01 )	( -7.6487025717e-04 -1.4001074061e-03 3.6304270293e-03 )
27               	( -4.4821065577e-02 3.5178551000e-01 1.6678297977e-01 )	( -4.4059389568e-02 3.5316186716e-01 1.6317714416e-01 )	( -7.6167600993e-04 -1.3763571598e-03 3.6058356105e-03 )
28               	( -4.4851874943e-02 3.5188238452e-01 1.6675310574e-01 )	( -4.4092913207e-02 3.5323785207e-01 1.6316906778e-01 )	( -7.5896173588e-04 -1.3554675487e-03 3.5840379645e-03 )
29               	( -4.4798024197e-02 3.5158269586e-01 1.6651435807e-01 )	( -4.4041338714e-02 3.5292002610e-01 1.6294949777e-01 )	( -7.5668548327e-04 -1.3373302372e-03 3.5648602983e-03 )
30               	( -4.4717036573e-02 3.5110561820e-01 1.6617946203e-01 )	( -4.3962134271e-02 3.5242769234e-01 1.6263080660e-01 )	( -7.5490230232e-04 -1.3220741410e-03 3.5486554298e-03 )
31               	( -4.4627756997e-02 3.5049411950e-01 1.6577436640e-01 )	( -4.3874265237e-02 3.5180338368e-01 1.6223937633e-01 )	( -7.5349176091e-04 -1.3092641800e-03 3.5349900779e-03 )
32               	( -4.4535554811e-02 3.4975438942e-01 1.6531399456e-01 )	( -4.3783211758e-02 3.5105276488e-01 1.6179075760e-01 )	( -7.5234305386e-04 -1.2983754571e-03 3.5232369528e-03 )
33               	( -4.4437197350e-02 3.4890789096e-01 1.6481872318e-01 )	( -4.3685819025e-02 3.5019715785e-01 1.6130555108e-01 )	( -7.5137832452e-04 -1.2892668909e-03 3.5131720986e-03 )
34               	( -4.4320231064e-02 3.4793274456e-01 1.6428422651e-01 )	( -4.3569621434e-02 3.4921466012e-01 1.6077940751e-01 )	( -7.5060963060e-04 -1.2819155661e-03 3.5048190048e-03 )
35               	( -4.4183496583e-02 3.4685175580e-01 1.6371769661e-01 )	( -4.3433409898e-02 3.4812816570e-01 1.6021931927e-01 )	( -7.5008668589e-04 -1.2764099057e-03 3.4983773350e-03 )
36               	( -4.4033680236e-02 3.4568922285e-01 1.6313374942e-01 )	( -4.3283841063e-02 3.4696181088e-01 1.5963989779e-01 )	( -7.4983917299e-04 -1.2725880297e-03 3.4938516302e-03 )
37               	( -4.3876052175e-02 3.4444915954e-01 1.6253804328e-01 )	( -4.3126207691e-02 3.4571954184e-01 1.5904693379e-01 )	( -7.4984448404e-04 -1.2703822923e-03 3.4911094835e-03 )
38               	( -4.3736589343e-02 3.4323877877e-01 1.6198545214e-01 )	( -4.2986497611e-02 3.4450837853e-01 1.5849544969e-01 )	( -7.5009173194e-04 -1.2695997637e-03 3.4900024487e-03 )
39               	( -4.3614453594e-02 3.4206577523e-01 1.6147694540e-01 )	( -4.2863938738e-02 3.4333582337e-01 1.5798675325e-01 )	( -7.5051485642e-04 -1.2700481458e-03 3.4901921492e-03 )
40               	( -4.3510914191e-02 3.4094086570e-01 1.6101690257e-01 )	( -4.2759755756e-02 3.4221269162e-01 1.5752496136e-01 )	( -7.5115843501e-04 -1.2718259146e-03 3.4919412094e-03 )
41               	( -4.3426945934e-02 3.3989197678e-01 1.6061572859e-01 )	( -4.2674985105e-02 3.4116626480e-01 1.5712100591e-01 )	( -7.5196082939e-04 -1.2742880182e-03 3.4947226768e-03 )
42               	( -4.3359963944e-02 3.3894487472e-01 1.6027880715e-01 )	( -4.2606883234e-02 3.4022297867e-01 1.5677934836e-01 )	( -7.5308070963e-04 -1.2781039474e-03 3.4994587858e-03 )
43               	( -4.3303975240e-02 3.3808116463e-01 1.5999278749e-01 )	( -4.2549637891e-02 3.3936368516e-01 1.5648770999e-01 )	( -7.5433734815e-04 -1.2825205378e-03 3.5050775012e-03 )
44               	( -4.3262452931e-02 3.3733273788e-01 1.5976405017e-01 )	( -4.2506694762e-02 3.3862010278e-01 1.5625242039e-01 )	( -7.5575816827e-04 -1.2873649041e-03 3.5116297784e-03 )
45               	( -4.3235003871e-02 3.3669626385e-01 1.5958068316e-01 )	( -4.2477738582e-02 3.3798881153e-01 1.5606193520e-01 )	( -7.5726528858e-04 -1.2925476843e-03 3.5187479562e-03 )
46               	( -4.3223598404e-02 3.3617470432e-01 1.5943758960e-01 )	( -4.2464785928e-02 3.3747257486e-01 1.5591142647e-01 )	( -7.5881247681e-04 -1.2978705372e-03 3.5261631291e-03 )
47               	( -4.3225678720e-02 3.3575918548e-01 1.5932509973e-01 )	( -4.2465315454e-02 3.3706248655e-01 1.5579136532e-01 )	( -7.6036326650e-04 -1.3033010713e-03 3.5337344162e-03 )
48               	( -4.3233298991e-02 3.3540230916e-01 1.5922082097e-01 )	( -4.2471339587e-02 3.3671124079e-01 1.5567914799e-01 )	( -7.6195940422e-04 -1.3089316304e-03 3.5416729869e-03 )
49               	( -4.3244727440e-02 3.3507289150e-01 1.5912180133e-01 )	( -4.2481131781e-02 3.3638774814e-01 1.5557180479e-01 )	( -7.6359565982e-04 -1.3148566415e-03 3.5499965371e-03 )
50               	( -4.3260107040e-02 3.3476328284e-01 1.5903562326e-01 )	( -4.2494826080e-02 3.3608433332e-01 1.5547690337e-01 )	( -7.6528095912e-04 -1.3210504835e-03 3.5587198843e-03 )
