# Time           	Tmin             	at location      	Tmax             	at location      	Tmean            	TstDev           	Umin             	at location      	Umax             	at location      	Umean            	UstDev           	kmin             	at location      	kmax             	at location      	kmean            	kstDev           	omegamin         	at location      	omegamax         	at location      	omegamean        	omegastDev       	pmin             	at location      	pmax             	at location      	pmean            	pstDev           
0.5              2.9999938356e+02 ( 4.8272417348e+01 -5.6100819445e-01 5.4659772896e+00 ) 3.0029229710e+02 ( 6.5038420822e+01 -2.2057412579e+00 -1.7384359385e+00 ) 3.0000282366e+02 1.1803741142e-02 3.8277271966e-04 ( 5.4894420667e+01 4.2794071008e+00 -1.1818676470e+00 ) 1.0940574930e+00 ( 4.8341552327e+01 8.9197395275e-01 5.4649652683e+00 ) 5.0909766821e-02 7.7145590189e-02 2.2034220837e-03 ( 7.0166961362e+01 -3.8561397912e-01 2.3852733434e-01 ) 4.2160297398e-03 ( 4.8312140657e+01 4.9067105049e-01 4.4258150735e+00 ) 2.8559008093e-03 2.7321717256e-04 1.2751787675e+00 ( 7.7404485532e+01 9.6405954798e-01 4.1714916261e+00 ) 1.8599716242e+01 ( 7.0166961362e+01 -3.8561397912e-01 2.3852733434e-01 ) 7.1820837717e+00 2.4173894329e+00 -9.3401498694e+01 ( 4.8216709162e+01 1.9220564284e-01 5.8240846493e+00 ) 2.5091586685e+01 ( 9.5039237951e+01 -7.6164315356e-01 -2.2154387218e+00 ) -1.1973282477e+01 2.1983119357e+01 
1                2.9999999628e+02 ( 9.9917072961e+01 4.2697348987e+00 -1.2188920472e+00 ) 3.0077510902e+02 ( 6.5196793113e+01 -2.1196364289e+00 -1.7405547034e+00 ) 3.0000882141e+02 3.1705600104e-02 3.2968186989e-05 ( 7.5652584385e+01 3.9848963075e+00 1.6949029437e+00 ) 1.1810821426e+00 ( 4.7921141166e+01 4.6141864067e-01 4.3773617948e+00 ) 3.1556795052e-02 9.2829911196e-02 1.2965019821e-03 ( 7.0166961362e+01 -3.8561397912e-01 2.3852733434e-01 ) 4.1888878112e-03 ( 4.7921141166e+01 4.6141864067e-01 4.3773617948e+00 ) 2.2176837027e-03 4.3840144234e-04 1.0938074543e+00 ( 5.1848978324e+01 9.0284323356e-01 4.1608259144e+00 ) 1.5294087596e+01 ( 7.0166961362e+01 -3.8561397912e-01 2.3852733434e-01 ) 5.4823624239e+00 1.6945718375e+00 -5.0149949192e+01 ( 9.9831470471e+01 -4.7361000530e-01 4.3786843091e+00 ) 3.1313800044e+01 ( 6.4997542838e+01 -3.2539764943e+00 -2.2568065590e+00 ) -5.9191971538e+00 2.1039711648e+01 
1.5              2.9998698805e+02 ( 5.1494498962e+01 -1.7951337523e-01 5.8258735831e+00 ) 3.0150971398e+02 ( 6.5537659760e+01 -2.1196639360e+00 -1.7405594429e+00 ) 3.0001013441e+02 6.1054346683e-02 7.9035341821e-04 ( 9.5629592491e+01 -3.3386051359e+00 -2.1309349302e+00 ) 3.1047062380e+00 ( 5.1468903709e+01 1.1813525180e+00 4.4853806634e+00 ) 1.4383839900e-01 3.0495170389e-01 8.1527258520e-04 ( 7.0166961362e+01 -3.8561397912e-01 2.3852733434e-01 ) 2.4769395151e-02 ( 5.1494498962e+01 -1.7951337523e-01 5.8258735831e+00 ) 1.8750942513e-03 9.9119858748e-04 1.0249347614e+00 ( 4.5174175418e+01 -8.9479611087e-01 4.1940246278e+00 ) 1.3551873222e+01 ( 7.0166961362e+01 -3.8561397912e-01 2.3852733434e-01 ) 4.3742895422e+00 1.2110247605e+00 -5.0147643319e+01 ( 9.9831470471e+01 -4.7361000530e-01 4.3786843091e+00 ) 3.1260752245e+01 ( 6.4997991081e+01 -2.1182813783e+00 -2.2556880086e+00 ) -5.9761566808e+00 2.1045894353e+01 
2                2.9995789223e+02 ( 4.8345837781e+01 -9.0497294005e-01 5.8206256201e+00 ) 3.0251570347e+02 ( 6.5625087755e+01 -1.4275038690e+00 -1.7405505024e+00 ) 3.0000577131e+02 1.0135010377e-01 3.7061899079e-04 ( 9.9912710334e+01 -3.8736713039e+00 -6.1641484861e-01 ) 2.3991753301e+00 ( 5.1494498962e+01 -1.7951337523e-01 5.8258735831e+00 ) 8.8752227159e-02 1.9575223368e-01 6.0709333230e-04 ( 7.0166961362e+01 -3.8561397912e-01 2.3852733434e-01 ) 2.0667239994e-02 ( 5.1494498962e+01 -1.7951337523e-01 5.8258735831e+00 ) 1.6215674940e-03 1.1186709411e-03 1.1507820300e+00 ( 4.5174175418e+01 -8.9479611087e-01 4.1940246278e+00 ) 2.1463860261e+01 ( 5.1494498962e+01 -1.7951337523e-01 5.8258735831e+00 ) 3.6605706326e+00 1.0597476077e+00 -9.3905028951e+01 ( 4.8216709162e+01 1.9220564284e-01 5.8240846493e+00 ) 2.4896871907e+01 ( 9.5039237951e+01 -7.6164315356e-01 -2.2154387218e+00 ) -1.3405001119e+01 2.2112881668e+01 
2.5              2.9996493054e+02 ( 4.8345837781e+01 -9.0497294005e-01 5.8206256201e+00 ) 3.0381868494e+02 ( 6.5625087581e+01 -1.8601101955e+00 -1.7405493472e+00 ) 3.0000731001e+02 1.5256572568e-01 3.6993948499e-04 ( 6.4004365609e+01 -4.0561568153e+00 -4.4978316108e-01 ) 2.4934163446e+00 ( 4.7921141166e+01 4.6141864067e-01 4.3773617948e+00 ) 5.6035960489e-02 1.2402977037e-01 4.8952365814e-04 ( 7.0166961362e+01 -3.8561397912e-01 2.3852733434e-01 ) 1.7878433640e-02 ( 5.0818480350e+01 1.6096691501e+00 5.4845538692e+00 ) 1.4112451307e-03 1.0407782002e-03 9.9741704337e-01 ( 4.5174175418e+01 -8.9479611087e-01 4.1940246278e+00 ) 1.7378782361e+01 ( 5.1494486581e+01 1.7946364688e-01 5.8258748834e+00 ) 3.1297431123e+00 8.1531291450e-01 -9.3405449275e+01 ( 5.0794133924e+01 -1.2324858031e+00 5.8284711589e+00 ) 2.4682028018e+01 ( 9.5027953373e+01 -2.7076807454e+00 -2.2140043661e+00 ) -1.4299259132e+01 2.2161143831e+01 
3                2.9999950727e+02 ( 4.5459407347e+01 3.2660392191e+00 2.9913483715e+00 ) 3.0542833338e+02 ( 6.5537659760e+01 -2.1196639360e+00 -1.7405594429e+00 ) 3.0001739337e+02 2.1450654679e-01 4.7977245782e-05 ( 8.0907632742e+01 -4.3178452360e+00 3.1555775055e-01 ) 1.3957149120e+00 ( 4.8305969045e+01 8.6001874104e-01 4.1474372327e+00 ) 2.8672244148e-02 7.5269923933e-02 4.0516228221e-04 ( 7.0166961362e+01 -3.8561397912e-01 2.3852733434e-01 ) 1.4843918534e-02 ( 5.0818480350e+01 1.6096691501e+00 5.4845538692e+00 ) 1.2492728278e-03 9.4302925296e-04 8.9081867487e-01 ( 4.5174175418e+01 -8.9479611087e-01 4.1940246278e+00 ) 1.1589764429e+01 ( 5.1494498962e+01 -1.7951337523e-01 5.8258735831e+00 ) 2.7388912176e+00 6.3154549833e-01 -5.0147913502e+01 ( 9.9831470471e+01 -4.7361000530e-01 4.3786843091e+00 ) 3.1568123929e+01 ( 6.4997542838e+01 -3.2539764943e+00 -2.2568065590e+00 ) -5.7380347215e+00 2.1027383438e+01 
3.5              2.9996514003e+02 ( 4.9299084491e+01 -1.6539255382e+00 5.8267752772e+00 ) 3.0732130526e+02 ( 6.5625087525e+01 -1.5140284079e+00 -1.7405492620e+00 ) 3.0001494484e+02 2.8601996120e-01 2.3566026876e-04 ( 9.5271778073e+01 8.6708230002e-01 -5.2100590460e-02 ) 1.6217352654e+00 ( 4.7921141166e+01 4.6141864067e-01 4.3773617948e+00 ) 3.5157969602e-02 7.8802541022e-02 3.4044269260e-04 ( 6.9039887327e+01 -3.7793096723e-01 2.6214432860e-01 ) 1.2652837198e-02 ( 5.0818480350e+01 1.6096691501e+00 5.4845538692e+00 ) 1.1194859179e-03 8.6446612927e-04 7.6033505667e-01 ( 4.5174175418e+01 -8.9479611087e-01 4.1940246278e+00 ) 1.0539078561e+01 ( 7.0166961362e+01 -3.8561397912e-01 2.3852733434e-01 ) 2.4474432258e+00 4.9067242520e-01 -9.6500233100e+01 ( 4.9359910004e+01 -1.7817573265e-01 5.8275550056e+00 ) 2.5097307215e+01 ( 9.5039237951e+01 -7.6164315356e-01 -2.2154387218e+00 ) -1.2503420253e+01 2.2124473232e+01 
4                2.9999898290e+02 ( 4.5187596724e+01 3.2233763646e+00 3.0116479425e+00 ) 3.0953506566e+02 ( 6.5625087581e+01 -1.8601101955e+00 -1.7405493472e+00 ) 3.0002339184e+02 3.6691757950e-01 1.2219279141e-04 ( 9.0979299359e+01 -1.4688622664e+00 -2.2018159342e+00 ) 9.2631059474e-01 ( 5.1426448036e+01 1.4983255413e+00 4.1163583877e+00 ) 3.7072259275e-02 7.6875409372e-02 2.8264648581e-04 ( 6.9215056347e+01 -3.7793566232e-01 2.6214363406e-01 ) 1.0492793507e-02 ( 4.9022314068e+01 -1.7581024152e-01 4.1011592590e+00 ) 1.0166402835e-03 7.8769288003e-04 7.2998340167e-01 ( 4.5174175418e+01 -8.9479611087e-01 4.1940246278e+00 ) 1.0314932205e+01 ( 7.0166961362e+01 -3.8561397912e-01 2.3852733434e-01 ) 2.2174922484e+00 4.2694086098e-01 -5.0154744199e+01 ( 9.9831470471e+01 -4.7361000530e-01 4.3786843091e+00 ) 2.9550697616e+01 ( 6.4997542838e+01 -3.2539764943e+00 -2.2568065590e+00 ) -7.1468755553e+00 2.1063905325e+01 
4.5              2.9997852936e+02 ( 4.9299084491e+01 -1.6539255382e+00 5.8267752772e+00 ) 3.1205845221e+02 ( 6.5800175307e+01 -1.8601104092e+00 -1.7405482914e+00 ) 3.0002951852e+02 4.5607215013e-01 2.4471382896e-04 ( 6.4945773091e+01 -2.0331435239e+00 -6.1405597154e-01 ) 3.7388226000e+00 ( 4.8217145729e+01 -1.6783533351e-01 4.7360692779e+00 ) 1.6673641153e-01 3.2390159128e-01 2.4256866795e-04 ( 6.9215056347e+01 -3.7793566232e-01 2.6214363406e-01 ) 3.4846541701e-02 ( 4.8216499532e+01 -1.9070745854e-01 5.8240676852e+00 ) 1.0655574501e-03 1.5648181118e-03 6.5869327030e-01 ( 4.5174175418e+01 -8.9479611087e-01 4.1940246278e+00 ) 9.9683378633e+00 ( 7.0166961362e+01 -3.8561397912e-01 2.3852733434e-01 ) 2.0600293397e+00 4.6994083237e-01 -5.0143704846e+01 ( 9.9831470471e+01 -4.7361000530e-01 4.3786843091e+00 ) 3.2427714764e+01 ( 6.4997542838e+01 -3.2539764943e+00 -2.2568065590e+00 ) -5.1853388425e+00 2.1067054993e+01 
5                2.9990488549e+02 ( 4.8345837781e+01 -9.0497294005e-01 5.8206256201e+00 ) 3.1489089338e+02 ( 6.6150488109e+01 -1.7735680372e+00 -1.7405488084e+00 ) 3.0002790260e+02 5.5241984718e-01 9.5593691820e-04 ( 5.4983408451e+01 4.0110420996e+00 -1.7587599612e+00 ) 3.0201860108e+00 ( 4.8216499532e+01 -1.9070745854e-01 5.8240676852e+00 ) 1.2426942199e-01 2.3866622325e-01 2.1086708344e-04 ( 6.9215056347e+01 -3.7793566232e-01 2.6214363406e-01 ) 3.7785990169e-02 ( 4.8216499532e+01 -1.9070745854e-01 5.8240676852e+00 ) 1.0831355843e-03 1.9433754599e-03 8.0300518140e-01 ( 4.5168602274e+01 3.3621707696e+00 2.7019507226e+00 ) 2.2909338839e+01 ( 5.0469225084e+01 1.6150549969e+00 5.8287481074e+00 ) 1.9606539773e+00 8.7128529626e-01 -9.4191299557e+01 ( 4.8345837781e+01 -9.0497294005e-01 5.8206256201e+00 ) 2.4957755898e+01 ( 9.5039237951e+01 -7.6164315356e-01 -2.2154387218e+00 ) -1.3187529736e+01 2.2116041944e+01 
5.5              2.9994222438e+02 ( 4.8346256335e+01 9.0565517788e-01 5.8206389998e+00 ) 3.1806193504e+02 ( 6.6325647333e+01 -1.7735680379e+00 -1.7405488117e+00 ) 3.0003334878e+02 6.5421852050e-01 6.3574116454e-05 ( 7.9593944096e+01 4.3752403232e+00 -6.1561403682e-01 ) 2.5765332593e+00 ( 4.8345837781e+01 -9.0497294005e-01 5.8206256201e+00 ) 5.0060156537e-02 1.3291636678e-01 1.8810155659e-04 ( 6.9039887327e+01 -3.7793096723e-01 2.6214432860e-01 ) 3.1859809158e-02 ( 4.8217145729e+01 -1.6783533351e-01 4.7360692779e+00 ) 1.0381798549e-03 1.8718692419e-03 7.3277653285e-01 ( 4.5168602274e+01 3.3621707696e+00 2.7019507226e+00 ) 1.8525556749e+01 ( 5.1168096937e+01 -1.2430362761e+00 5.8271574916e+00 ) 1.8235322173e+00 7.5674026217e-01 -8.4007004248e+01 ( 4.8216499532e+01 -1.9070745854e-01 5.8240676852e+00 ) 2.4799832411e+01 ( 9.5039237951e+01 -7.6164315356e-01 -2.2154387218e+00 ) -1.3416324550e+01 2.1890752130e+01 
6                2.9999791007e+02 ( 4.5459407347e+01 3.2660392191e+00 2.9913483715e+00 ) 3.2158080790e+02 ( 6.6325647327e+01 -1.8601104579e+00 -1.7405488293e+00 ) 3.0004582240e+02 7.6054607375e-01 3.2231676738e-04 ( 5.6297693682e+01 -3.7050112305e+00 -4.5573733743e-01 ) 2.4468167451e+00 ( 4.9782603896e+01 -1.8807799561e+00 4.1786467231e+00 ) 8.8425906835e-02 1.7154749677e-01 1.6657734022e-04 ( 6.9039887327e+01 -3.7793096723e-01 2.6214432860e-01 ) 2.5431525143e-02 ( 5.0763707807e+01 1.6093057751e+00 3.8378661870e+00 ) 1.0148241712e-03 1.9195719248e-03 6.6643324414e-01 ( 4.5168602274e+01 3.3621707696e+00 2.7019507226e+00 ) 1.4431385017e+01 ( 4.9711060886e+01 -8.9166696515e-01 5.8278253509e+00 ) 1.7146164405e+00 6.5978868005e-01 -5.0147391415e+01 ( 9.9831470471e+01 -4.7361000530e-01 4.3786843091e+00 ) 3.1142489283e+01 ( 6.4997542838e+01 -3.2539764943e+00 -2.2568065590e+00 ) -6.0295110096e+00 2.0997317334e+01 
6.5              2.9997803585e+02 ( 4.8274857244e+01 5.7061865306e-01 5.8223850492e+00 ) 3.2584851189e+02 ( 6.7026284269e+01 -1.8601104589e+00 -1.7405488298e+00 ) 3.0005121561e+02 8.8446230353e-01 9.1694963067e-04 ( 6.1902939720e+01 -4.2913138793e+00 -9.9829262733e-01 ) 3.2838409555e+00 ( 4.9735570965e+01 1.8763220716e+00 5.8258994277e+00 ) 1.2173248561e-01 2.2062763430e-01 1.4890030589e-04 ( 6.9039887327e+01 -3.7793096723e-01 2.6214432860e-01 ) 5.8420746074e-02 ( 5.0431968947e+01 -1.7389393116e-01 4.0996214195e+00 ) 1.0645753466e-03 2.4576275406e-03 6.1582286877e-01 ( 4.5168602274e+01 3.3621707696e+00 2.7019507226e+00 ) 1.6882074800e+01 ( 4.9711060886e+01 -8.9166696515e-01 5.8278253509e+00 ) 1.6339312053e+00 7.2035078018e-01 -5.0213803686e+01 ( 4.5176320081e+01 4.7713976063e-01 4.3768668760e+00 ) 2.7735708658e+01 ( 6.4997542838e+01 -3.2539764943e+00 -2.2568065590e+00 ) -8.5392692554e+00 2.1134043185e+01 
7                2.9993562171e+02 ( 4.9711153940e+01 8.9188899346e-01 5.8278088393e+00 ) 3.3104245916e+02 ( 6.7376602740e+01 -1.8601104589e+00 -1.7405488298e+00 ) 3.0005543070e+02 1.0293390431e+00 3.7477192028e-05 ( 8.4673615808e+01 -2.3352438662e+00 1.7854805028e+00 ) 3.6741089868e+00 ( 5.0078087002e+01 -1.7596724543e-01 5.8278683097e+00 ) 7.2052354988e-02 2.1280249430e-01 1.2624607264e-04 ( 9.9913810680e+01 -3.8800610045e+00 -2.6709428590e-01 ) 9.8619107429e-02 ( 5.0431968947e+01 -1.7389393116e-01 4.0996214195e+00 ) 1.0856563611e-03 3.0864919731e-03 6.0914949760e-01 ( 4.5168602274e+01 3.3621707696e+00 2.7019507226e+00 ) 1.5514857819e+01 ( 4.9693089288e+01 1.2569484340e+00 5.8279729989e+00 ) 1.5499726946e+00 6.8694719726e-01 -9.6639730995e+01 ( 4.9356063397e+01 5.3653736392e-01 5.8275186025e+00 ) 2.4748157944e+01 ( 9.5039237951e+01 -7.6164315356e-01 -2.2154387218e+00 ) -1.4242247460e+01 2.2203904733e+01 
7.5              2.9999435887e+02 ( 4.9711153940e+01 8.9188899346e-01 5.8278088393e+00 ) 3.3727114956e+02 ( 6.7201443504e+01 -1.8601104589e+00 -1.7405488298e+00 ) 3.0007303547e+02 1.1959315968e+00 5.2059201595e-04 ( 6.0328331347e+01 -4.1420079619e+00 -1.2112734612e+00 ) 2.8691366133e+00 ( 4.9735570965e+01 1.8763220716e+00 5.8258994277e+00 ) 9.3343375942e-02 1.6811343021e-01 1.0382536087e-04 ( 9.9913810680e+01 -3.8800610045e+00 -2.6709428590e-01 ) 9.8032381897e-02 ( 5.0433028083e+01 5.2442624839e-01 4.7921351743e+00 ) 1.1055240971e-03 3.6334443814e-03 7.2238835946e-01 ( 4.9728705426e+01 4.0747838680e+00 1.3554698943e+00 ) 1.8742594133e+01 ( 4.8993101041e+01 1.7842572656e-01 5.8267152441e+00 ) 1.4810965896e+00 7.0037185628e-01 -5.0149373999e+01 ( 9.9831470471e+01 -4.7361000530e-01 4.3786843091e+00 ) 3.0889771152e+01 ( 6.4997542838e+01 -3.2539764943e+00 -2.2568065590e+00 ) -6.1541710847e+00 2.1025652306e+01 
8                2.9997070079e+02 ( 4.9662813532e+01 -1.6385398183e+00 5.8284745782e+00 ) 3.4456697300e+02 ( 6.7376602740e+01 -1.8601104589e+00 -1.7405488298e+00 ) 3.0008532547e+02 1.3848379447e+00 3.3473459010e-04 ( 5.5333932587e+01 4.0103672644e+00 -1.7608171124e+00 ) 4.4989751520e+00 ( 5.1820936135e+01 -1.6088173913e-01 4.7411352487e+00 ) 1.5971718169e-01 2.5830770792e-01 8.8828137866e-05 ( 9.9913810680e+01 -3.8800610045e+00 -2.6709428590e-01 ) 1.5971653051e-01 ( 5.0796722234e+01 -5.2960524382e-01 5.8276184200e+00 ) 1.2489508630e-03 4.6992420794e-03 6.7783666628e-01 ( 9.9821954563e+01 -4.3093244710e+00 3.4060055007e-01 ) 3.1674913613e+01 ( 4.9359949735e+01 1.7853303624e-01 5.8275497856e+00 ) 1.4452254459e+00 9.2699293341e-01 -5.0149745049e+01 ( 9.9831470471e+01 -4.7361000530e-01 4.3786843091e+00 ) 3.0618998479e+01 ( 6.4997542838e+01 -3.2539764943e+00 -2.2568065590e+00 ) -6.4282799139e+00 2.0991201878e+01 
8.5              2.9989458904e+02 ( 5.1168676637e+01 5.4152887312e-01 5.8270492516e+00 ) 3.5296720726e+02 ( 6.7376602740e+01 -1.8601104589e+00 -1.7405488298e+00 ) 3.0009367969e+02 1.5944219600e+00 7.8843053283e-04 ( 6.0500038357e+01 -3.5282749795e+00 -1.0119934486e+00 ) 3.6493363642e+00 ( 5.0796523021e+01 1.7766665675e-01 5.8275154377e+00 ) 1.2361116114e-01 2.2105687781e-01 7.5236766906e-05 ( 9.9913810680e+01 -3.8800610045e+00 -2.6709428590e-01 ) 1.7098611854e-01 ( 5.0796722234e+01 -5.2960524382e-01 5.8276184200e+00 ) 1.3023634855e-03 5.1075258493e-03 5.9675806454e-01 ( 4.5168602274e+01 3.3621707696e+00 2.7019507226e+00 ) 3.0683405013e+01 ( 4.9662748719e+01 1.6386226822e+00 5.8284232947e+00 ) 1.4072980240e+00 1.0435421091e+00 -9.6101770548e+01 ( 4.9720663977e+01 1.7706912247e-01 5.8278855743e+00 ) 2.4875482966e+01 ( 9.5039237951e+01 -7.6164315356e-01 -2.2154387218e+00 ) -1.3560207021e+01 2.2134613264e+01 
9                2.9995872593e+02 ( 5.1168676637e+01 5.4152887312e-01 5.8270492516e+00 ) 3.6246076200e+02 ( 6.7376602748e+01 -1.9466125148e+00 -1.7405488740e+00 ) 3.0011565804e+02 1.8238379225e+00 1.5944446153e-03 ( 5.9537838259e+01 -4.0453952264e+00 -1.4661403562e+00 ) 3.6146321652e+00 ( 5.1559339534e+01 9.0426580531e-01 5.4767491769e+00 ) 1.5349008669e-01 2.3769174715e-01 6.4835556047e-05 ( 9.9913810680e+01 -3.8800610045e+00 -2.6709428590e-01 ) 2.0507932834e-01 ( 5.0796722234e+01 -5.2960524382e-01 5.8276184200e+00 ) 1.3786858367e-03 5.6310854951e-03 6.0257357172e-01 ( 9.9821954563e+01 -4.3093244710e+00 3.4060055007e-01 ) 2.9331266376e+01 ( 4.9359910004e+01 -1.7817573265e-01 5.8275550056e+00 ) 1.3641057786e+00 1.0299754203e+00 -5.0154470749e+01 ( 9.9831470471e+01 -4.7361000530e-01 4.3786843091e+00 ) 2.9930829181e+01 ( 6.5000231966e+01 -5.4972312956e-01 -2.2571392707e+00 ) -6.8094124293e+00 2.0991381196e+01 
9.5              2.9991693730e+02 ( 5.0073597911e+01 -8.8654357528e-01 5.8279830561e+00 ) 3.7291564241e+02 ( 6.7376602748e+01 -1.9466125148e+00 -1.7405488740e+00 ) 3.0012809260e+02 2.0686746339e+00 6.4310445468e-04 ( 6.1289809333e+01 -4.0746565682e+00 1.3503319264e+00 ) 4.1463165670e+00 ( 5.0796523021e+01 1.7766665675e-01 5.8275154377e+00 ) 1.1716242814e-01 2.3493493711e-01 5.7321123440e-05 ( 9.9913810680e+01 -3.8800610045e+00 -2.6709428590e-01 ) 2.5589085553e-01 ( 5.0796722234e+01 -5.2960524382e-01 5.8276184200e+00 ) 1.3639356351e-03 5.6787396175e-03 5.6806573147e-01 ( 9.9821954563e+01 -4.3093244710e+00 3.4060055007e-01 ) 2.5991288405e+01 ( 5.1162413246e+01 -8.7949359187e-01 5.8275298076e+00 ) 1.3116391736e+00 9.2586396018e-01 -9.6182559502e+01 ( 4.9720663977e+01 1.7706912247e-01 5.8278855743e+00 ) 2.4924167297e+01 ( 9.5039237951e+01 -7.6164315356e-01 -2.2154387218e+00 ) -1.3456923917e+01 2.2155951702e+01 
10               2.9998251145e+02 ( 5.0073597911e+01 -8.8654357528e-01 5.8279830561e+00 ) 3.8399721811e+02 ( 6.7201443511e+01 -1.7735680381e+00 -1.7405488119e+00 ) 3.0015414066e+02 2.3260797692e+00 1.1167160014e-03 ( 5.5334741853e+01 -3.7410482162e+00 -1.8110414122e+00 ) 2.7839681023e+00 ( 5.1162413246e+01 -8.7949359187e-01 5.8275298076e+00 ) 1.3920878121e-01 1.9408690016e-01 5.1168021435e-05 ( 9.9913810680e+01 -3.8800610045e+00 -2.6709428590e-01 ) 3.3442936031e-01 ( 5.0796722234e+01 -5.2960524382e-01 5.8276184200e+00 ) 1.3649478521e-03 5.8050700914e-03 5.3165996976e-01 ( 9.9821954563e+01 -4.3093244710e+00 3.4060055007e-01 ) 2.4709798909e+01 ( 5.1162413246e+01 -8.7949359187e-01 5.8275298076e+00 ) 1.2701222551e+00 8.9075957487e-01 -5.0151252017e+01 ( 9.9831470471e+01 -4.7361000530e-01 4.3786843091e+00 ) 3.0676317953e+01 ( 6.5000231966e+01 -5.4972312956e-01 -2.2571392707e+00 ) -6.2509135052e+00 2.1014097044e+01 
10.5             2.9997178324e+02 ( 5.0070295797e+01 1.2447764873e+00 5.8280692099e+00 ) 3.9541716241e+02 ( 6.7201443511e+01 -1.7735680381e+00 -1.7405488119e+00 ) 3.0017571791e+02 2.5905936103e+00 3.3709178766e-03 ( 6.4947946638e+01 -9.0732045176e-01 9.2010417517e-02 ) 4.0695415574e+00 ( 5.1468510298e+01 -1.1822028837e+00 4.4854359946e+00 ) 1.9369234655e-01 2.5786959105e-01 4.5868028781e-05 ( 9.9913810680e+01 -3.8800610045e+00 -2.6709428590e-01 ) 2.4083435543e-01 ( 5.0795854369e+01 -5.2856749880e-01 5.4830022352e+00 ) 1.4767945632e-03 5.9969847823e-03 4.9781517970e-01 ( 9.9821954563e+01 -4.3093244710e+00 3.4060055007e-01 ) 5.0337398864e+01 ( 5.1168676637e+01 5.4152887312e-01 5.8270492516e+00 ) 1.2552989450e+00 1.0539268664e+00 -5.0150329478e+01 ( 9.9831470471e+01 -4.7361000530e-01 4.3786843091e+00 ) 3.0520011392e+01 ( 6.5000231966e+01 -5.4972312956e-01 -2.2571392707e+00 ) -6.4854809639e+00 2.0959831292e+01 
11               2.9990755763e+02 ( 4.8989072617e+01 5.4252970385e-01 5.8262992105e+00 ) 4.0740887673e+02 ( 6.6938683880e+01 -1.6870669582e+00 -1.7405487836e+00 ) 3.0019328220e+02 2.8618569392e+00 1.6686766314e-03 ( 9.6325106382e+01 -1.9044682967e+00 -2.1276139203e+00 ) 3.5076387155e+00 ( 5.1563211250e+01 -5.6872003801e-01 5.8263707181e+00 ) 1.6059425353e-01 2.3268637185e-01 4.1754901037e-05 ( 9.9913810680e+01 -3.8800610045e+00 -2.6709428590e-01 ) 1.9370900675e-01 ( 5.0793031403e+01 -5.2699517443e-01 5.1382120268e+00 ) 1.5114779328e-03 5.8352776978e-03 4.7643382712e-01 ( 9.9821954563e+01 -4.3093244710e+00 3.4060055007e-01 ) 3.2442628222e+01 ( 5.1563211250e+01 -5.6872003801e-01 5.8263707181e+00 ) 1.2367723602e+00 1.0844993415e+00 -9.6160243618e+01 ( 4.9717373671e+01 -5.3263627169e-01 5.8278079074e+00 ) 2.4868889617e+01 ( 9.5039237951e+01 -7.6164315356e-01 -2.2154387218e+00 ) -1.3659984382e+01 2.2144464127e+01 
11.5             2.9997524625e+02 ( 4.9662813532e+01 -1.6385398183e+00 5.8284745782e+00 ) 4.2005984175e+02 ( 6.6938683880e+01 -1.6870669582e+00 -1.7405487836e+00 ) 3.0022453839e+02 3.1374521934e+00 1.2961617627e-03 ( 9.5069950112e+01 -3.0757910368e+00 -4.8137650286e-01 ) 3.5260419722e+00 ( 5.1564716114e+01 -5.6589489330e-01 5.4755273683e+00 ) 1.8604127805e-01 2.4724311051e-01 3.8773426859e-05 ( 9.9913810680e+01 -3.8800610045e+00 -2.6709428590e-01 ) 2.0331192456e-01 ( 5.0795769147e+01 8.7817629523e-01 5.1398076983e+00 ) 1.5983095122e-03 6.1357833793e-03 4.4707210826e-01 ( 9.9821954563e+01 -4.3093244710e+00 3.4060055007e-01 ) 2.9501929196e+01 ( 5.1563211250e+01 -5.6872003801e-01 5.8263707181e+00 ) 1.2187403898e+00 1.1081751423e+00 -5.0154005256e+01 ( 9.9831470471e+01 -4.7361000530e-01 4.3786843091e+00 ) 3.0051132297e+01 ( 6.4997993381e+01 -1.7721901115e+00 -2.2556879096e+00 ) -6.7616795798e+00 2.0963755136e+01 
12               2.9994588686e+02 ( 4.9662813532e+01 -1.6385398183e+00 5.8284745782e+00 ) 4.3305660056e+02 ( 6.6938683878e+01 -1.7735680381e+00 -1.7405488119e+00 ) 3.0024834858e+02 3.4139627302e+00 2.6191902268e-03 ( 5.5684834533e+01 -3.3321284771e+00 -1.7994082456e+00 ) 3.7397792063e+00 ( 5.0796523021e+01 1.7766665675e-01 5.8275154377e+00 ) 1.7962250269e-01 2.4274503659e-01 3.6783116262e-05 ( 9.9913810680e+01 -3.8800610045e+00 -2.6709428590e-01 ) 2.5448652428e-01 ( 5.0796722234e+01 -5.2960524382e-01 5.8276184200e+00 ) 1.6403876510e-03 6.1895174294e-03 4.2438201851e-01 ( 9.9821954563e+01 -4.3093244710e+00 3.4060055007e-01 ) 2.7405217580e+01 ( 5.1563211250e+01 -5.6872003801e-01 5.8263707181e+00 ) 1.1993532562e+00 1.1017842348e+00 -6.8315930112e+01 ( 4.8988851933e+01 -5.4198444572e-01 5.8263234456e+00 ) 2.5326879501e+01 ( 9.5039237951e+01 -7.6164315356e-01 -2.2154387218e+00 ) -1.0715434881e+01 2.1471476801e+01 
12.5             2.9993592589e+02 ( 4.9662813532e+01 -1.6385398183e+00 5.8284745782e+00 ) 4.4667213347e+02 ( 6.6938683876e+01 -1.9466125148e+00 -1.7405488740e+00 ) 3.0027634450e+02 3.7019168724e+00 1.5264562712e-03 ( 6.1289844958e+01 -3.2248766091e+00 3.0079289761e+00 ) 3.9879991611e+00 ( 5.0796523021e+01 1.7766665675e-01 5.8275154377e+00 ) 1.6001747247e-01 2.6178541340e-01 3.7652308197e-05 ( 9.9913810680e+01 -3.8800610045e+00 -2.6709428590e-01 ) 1.5471980756e-01 ( 5.0798023574e+01 8.8022502679e-01 5.4834759789e+00 ) 1.6019613816e-03 5.5115970813e-03 4.0209434891e-01 ( 9.9821954563e+01 -4.3093244710e+00 3.4060055007e-01 ) 2.3107871217e+01 ( 6.5451900518e+01 -3.7786680453e-01 2.6187742077e-01 ) 1.1691302041e+00 9.9682650273e-01 -9.7368170495e+01 ( 4.8988851933e+01 -5.4198444572e-01 5.8263234456e+00 ) 2.4973086933e+01 ( 9.5039237951e+01 -7.6164315356e-01 -2.2154387218e+00 ) -1.2736538906e+01 2.2164408979e+01 
13               2.9994904958e+02 ( 4.9735909639e+01 -1.8762776375e+00 5.8259198157e+00 ) 4.6093270590e+02 ( 6.6851125041e+01 -1.9466125148e+00 -1.7405488740e+00 ) 3.0030956125e+02 4.0081731450e+00 3.1276631476e-04 ( 9.3606734844e+01 -1.8168650049e+00 1.7851463351e+00 ) 3.6942076587e+00 ( 5.1156679072e+01 1.8527186565e-01 5.8270423176e+00 ) 1.5673444761e-01 2.9375532686e-01 4.1388140762e-05 ( 9.9913810680e+01 -3.8800610045e+00 -2.6709428590e-01 ) 1.0245149805e-01 ( 5.1563316596e+01 5.6829609160e-01 5.8263686765e+00 ) 1.5367279492e-03 4.7826474929e-03 3.8111502692e-01 ( 9.9821954563e+01 -4.3093244710e+00 3.4060055007e-01 ) 3.4214914110e+01 ( 6.5537461960e+01 -3.7788347372e-01 2.6185630004e-01 ) 1.1388921252e+00 9.2231997848e-01 -9.7750105494e+01 ( 4.8983338621e+01 -9.0669643624e-01 5.8265366533e+00 ) 2.5110315575e+01 ( 9.5039237951e+01 -7.6164315356e-01 -2.2154387218e+00 ) -1.1960380263e+01 2.2135441106e+01 
13.5             2.9999295696e+02 ( 4.9735909639e+01 -1.8762776375e+00 5.8259198157e+00 ) 4.7668163257e+02 ( 6.6851124959e+01 -2.0331583231e+00 -1.7405487591e+00 ) 3.0034871061e+02 4.3374481113e+00 8.3425092465e-04 ( 7.6963611648e+01 -4.2796114123e+00 -1.1815565703e+00 ) 3.0735245264e+00 ( 6.6807324010e+01 -3.2826090087e+00 9.0177188282e-01 ) 1.5148464378e-01 2.3238884202e-01 4.0296688143e-05 ( 9.9913773386e+01 -3.5109656987e+00 -6.2368003554e-01 ) 6.9751348100e-02 ( 5.1563316596e+01 5.6829609160e-01 5.8263686765e+00 ) 1.4951995844e-03 4.3734349852e-03 3.6259960735e-01 ( 9.9821954563e+01 -4.3093244710e+00 3.4060055007e-01 ) 3.8097545337e+01 ( 6.7113142889e+01 -3.7793571581e-01 2.6214363391e-01 ) 1.1172723683e+00 9.3397417649e-01 -5.4934184341e+01 ( 4.8941538221e+01 -1.2911321294e+00 5.8255150463e+00 ) 2.8732162924e+01 ( 6.5000231966e+01 -5.4972312956e-01 -2.2571392707e+00 ) -7.8113282393e+00 2.1264489892e+01 
14               2.9996048454e+02 ( 5.0798502152e+01 -8.8169262921e-01 5.8276199075e+00 ) 4.9391880671e+02 ( 6.6763524586e+01 -2.1196744268e+00 -1.7405478667e+00 ) 3.0038371812e+02 4.6863375680e+00 1.0544508497e-03 ( 7.7667034077e+01 -4.2917405183e+00 -9.9868687962e-01 ) 3.6846677503e+00 ( 6.6807316453e+01 -3.2584296758e+00 1.4177792285e+00 ) 1.5219787899e-01 2.5922253490e-01 3.6384424428e-05 ( 9.9913773386e+01 -3.5109656987e+00 -6.2368003554e-01 ) 5.2678118550e-02 ( 6.6807316453e+01 -3.2584296758e+00 1.4177792285e+00 ) 1.4752394686e-03 4.1683672224e-03 3.4532617542e-01 ( 9.9821954563e+01 -4.3093244710e+00 3.4060055007e-01 ) 3.9452621060e+01 ( 6.6762824450e+01 -3.7793571706e-01 2.6214360245e-01 ) 1.0957470555e+00 9.3056406151e-01 -9.7419315421e+01 ( 4.8941538221e+01 -1.2911321294e+00 5.8255150463e+00 ) 2.5090230536e+01 ( 9.5039237951e+01 -7.6164315356e-01 -2.2154387218e+00 ) -1.2234131716e+01 2.2122430559e+01 
14.5             2.9992324838e+02 ( 6.9566097586e+01 -3.2452200726e+00 -2.6730815930e-01 ) 5.1192136071e+02 ( 6.7201443535e+01 -1.6005255723e+00 -1.7405487526e+00 ) 3.0042574335e+02 5.0507599660e+00 4.0375968395e-05 ( 9.2205365042e+01 -2.3352440370e+00 1.7854811981e+00 ) 3.7775112318e+00 ( 6.6982474105e+01 -3.2584263637e+00 1.4177810487e+00 ) 1.5391144253e-01 2.8403324779e-01 3.4122726381e-05 ( 9.9913773386e+01 -3.5109656987e+00 -6.2368003554e-01 ) 5.3472634959e-02 ( 5.2169017518e+01 -1.7616497563e-01 4.0667006938e+00 ) 1.4786109143e-03 4.1261073331e-03 3.3130816503e-01 ( 9.9821954563e+01 -4.3093244710e+00 3.4060055007e-01 ) 3.8942084350e+01 ( 6.6762824450e+01 -3.7793571706e-01 2.6214360245e-01 ) 1.0780106991e+00 9.3776712504e-01 -9.7081315930e+01 ( 4.8612904501e+01 1.7928389003e-01 5.8252182645e+00 ) 2.5074410313e+01 ( 9.5039237951e+01 -7.6164315356e-01 -2.2154387218e+00 ) -1.1958179045e+01 2.2074781695e+01 
15               2.9993317343e+02 ( 4.8966470579e+01 1.5693788155e+00 5.8236362627e+00 ) 5.3107107515e+02 ( 6.7113843090e+01 -1.6005255723e+00 -1.7405487526e+00 ) 3.0047098204e+02 5.4306488019e+00 1.9227259343e-04 ( 8.0647890998e+01 -8.3118285087e-02 1.0744354462e+00 ) 3.7970567124e+00 ( 6.6106855989e+01 -3.2584734088e+00 1.4177931010e+00 ) 1.5865494446e-01 2.9865926765e-01 3.3114840065e-05 ( 9.9913773386e+01 -3.5109656987e+00 -6.2368003554e-01 ) 6.5959476563e-02 ( 5.2169017518e+01 -1.7616497563e-01 4.0667006938e+00 ) 1.5062826130e-03 4.2345027907e-03 3.1850503046e-01 ( 9.9821954563e+01 -4.3093244710e+00 3.4060055007e-01 ) 3.9278296785e+01 ( 6.6762824450e+01 -3.7793571706e-01 2.6214360245e-01 ) 1.0649329734e+00 9.5472037516e-01 -9.6982539710e+01 ( 4.8993026236e+01 -1.7786064581e-01 5.8267232777e+00 ) 2.5187715467e+01 ( 9.5039237951e+01 -7.6164315356e-01 -2.2154387218e+00 ) -1.1494935467e+01 2.2070781072e+01 
15.5             2.9994501228e+02 ( 4.8628245484e+01 1.2613852256e+00 5.8222631174e+00 ) 5.5151651773e+02 ( 6.7113843090e+01 -1.6005255723e+00 -1.7405487526e+00 ) 3.0051888412e+02 5.8268936304e+00 7.7673853881e-05 ( 8.4410983422e+01 2.9664396718e+00 3.1415781943e+00 ) 3.8892403831e+00 ( 6.6106855989e+01 -3.2584734088e+00 1.4177931010e+00 ) 1.6710400611e-01 3.1238752179e-01 3.2585226585e-05 ( 9.9913773386e+01 -3.5109656987e+00 -6.2368003554e-01 ) 7.8099856865e-02 ( 5.2169017518e+01 -1.7616497563e-01 4.0667006938e+00 ) 1.5576811553e-03 4.4620211174e-03 3.0713176034e-01 ( 9.9825748324e+01 -4.3210148378e+00 1.5472647534e-02 ) 4.0361748635e+01 ( 6.6412506840e+01 -3.7793569785e-01 2.6214289548e-01 ) 1.0555632142e+00 9.8075341882e-01 -9.6905312446e+01 ( 4.8216709162e+01 1.9220564284e-01 5.8240846493e+00 ) 2.5185993282e+01 ( 9.5039237951e+01 -7.6164315356e-01 -2.2154387218e+00 ) -1.1524853532e+01 2.2075471854e+01 