# Time       	Tmin         	at location  	Tmax         	at location  	Tmean        	TstDev       	pmin         	at location  	pmax         	at location  	pmean        	pstDev       	Umin         	at location  	Umax         	at location  	Umean        	UstDev       
10           2.981500e+02 ( 5.000000e-01 5.000000e-02 5.000000e-02 ) 2.981500e+02 ( 5.000000e-01 5.000000e-02 5.000000e-02 ) 2.981500e+02 0.000000e+00 -1.098550e+01 ( 5.000000e-01 5.000000e-02 9.500000e-01 ) -5.781120e-01 ( 5.000000e-01 5.000000e-02 5.000000e-02 ) -5.781879e+00 3.321438e+00 0.000000e+00 ( 5.000000e-01 5.000000e-02 5.000000e-02 ) 0.000000e+00 ( 5.000000e-01 5.000000e-02 5.000000e-02 ) 0.000000e+00 0.000000e+00 
