# Force          
# CofR           : ( 0.0000000000e+00 0.0000000000e+00 0.0000000000e+00 )
#                
# Time           	(total_x total_y total_z)	(pressure_x pressure_y pressure_z)	(viscous_x viscous_y viscous_z)
50               	( -4.5638755920e+03 1.2117911906e+03 4.6845016963e+03 )	( -4.5679269177e+03 1.2101816340e+03 4.6801806307e+03 )	( 4.0513256194e+00 1.6095565848e+00 4.3210656129e+00 )
