# Region type :  patch inlet
# Faces          : 160
# Area           : 5.2350532518e-04
# Scale factor   : 1.0000000000e+00
# Time           	sum(phi)
0.0110607        	-3.6013833349e-06
