# Time           	PC-Lawsonmin     	at location      	PC-Lawsonmax     	at location      	PC-Lawsonmean    	PC-LawsonstDev   	PC-Safetymin     	at location      	PC-Safetymax     	at location      	PC-Safetymean    	PC-SafetystDev   
10               1.0000000000e+00 ( 8.6958714693e+00 2.1919355906e+00 3.6430284001e+00 ) 5.0000000000e+00 ( 8.7506179071e+00 5.8808167398e+01 4.9044116844e+01 ) 4.0074411520e+00 3.9172307060e-01 1.0000000000e+00 ( 8.7506179071e+00 5.8808167398e+01 4.9044116844e+01 ) 1.0000000000e+00 ( 8.7506179071e+00 5.8808167398e+01 4.9044116844e+01 ) 1.0000000000e+00 0.0000000000e+00 
