# Field minima and maxima
# Time         	field          	min            	location(min)  	max            	location(max)  
0.0001         	p              	-8.03170275e-09	( 2.27577164e-01 6.00000000e-01 -1.00000000e-02 )	4.45038543e+03	( 1.52681472e-01 2.99218360e-01 -1.00000000e-02 )
