# DavidsonCurle Acoustic Analogy
# Time       	microphone-A 	microphone-B 	microphone-C 
0.05	   6.785644e-01   -1.463045e+00   -1.400095e+00   
