# Time           	massFlux         	Umin             	Umax             	Umean            	UstDev           	pmin             	pmax             	pmean            	pstDev           
1 164.9306891 3.637698967 7.568308387 4.769276037 0.6674202414 -2.651760507 9.531881761 0.1990867962 2.674619901
2 165.1446431 2.754231474 5.887350483 4.753763457 0.3610710141 -800.5280917 8780.320352 -37.91035147 1505.267686
3 165.0198757 1.145996969 5.379226736 4.819616645 0.4010269405 -1573.303756 13639.28343 -321.5629957 2253.637625
4 164.9646664 0.5943627876 5.234441508 4.927777251 0.4584913101 -2212.217127 14986.95199 -626.7970152 2444.359028
5 164.9554853 0.5913406831 5.233328598 5.032690574 0.5071261434 -2763.887666 14657.45647 -840.9038732 2499.844319
6 164.960227 0.003629072365 5.41366267 5.11482624 0.5659060247 -3243.116738 13781.81436 -970.4809355 2635.090535
7 164.9765307 0.01108823322 5.615265987 5.17368341 0.6313912657 -3698.999787 12669.4961 -1044.181122 2828.072204
8 164.9968078 0.07451904318 5.807002077 5.208371345 0.7084534438 -4153.200167 11618.03616 -1082.77793 3039.900256
9 165.0215677 0.167402608 5.982082963 5.224537104 0.7835058182 -4669.74851 10775.68225 -1098.479789 3223.749991
10 165.0240493 0.4892489413 6.131300755 5.22830885 0.8472247611 -5121.889752 10009.37528 -1100.388423 3363.457975
11 165.0083777 0.8121716803 6.253688598 5.225957684 0.8988014473 -5502.095644 9498.788229 -1096.501683 3457.27095
12 165.0069951 0.8198075772 6.372565829 5.221670584 0.9468480772 -5809.545943 9148.462781 -1092.969655 3511.312536
13 165.0149508 0.8375547522 6.485684195 5.219266977 0.9917398502 -6049.139609 8866.434463 -1093.517433 3533.313291
14 165.0148569 0.8423303464 6.5741202 5.22062224 1.035731117 -6228.712683 8637.115831 -1100.14701 3530.710085
15 165.0168502 0.852148974 6.641988599 5.227960163 1.081582386 -6356.029212 8433.199383 -1113.745048 3509.343233
16 165.015947 0.8855444856 6.696038092 5.242585454 1.131583777 -6437.720686 8226.913753 -1133.708882 3472.849804
17 165.0010827 0.8578691657 6.742221276 5.266169632 1.186269114 -6478.716341 7998.188251 -1158.920876 3423.234536
18 164.9886232 0.7348704981 6.786469124 5.299837437 1.245580533 -6482.672551 7728.970459 -1187.050325 3361.999221
19 164.993685 0.747284886 6.833681079 5.343919932 1.308316824 -6452.926277 7412.431534 -1215.087519 3290.690444
20 164.9994758 0.6397848419 6.912188746 5.39755129 1.371487097 -6392.037986 7047.267969 -1240.019772 3210.723452
21 165.0008094 0.5154853902 7.020178429 5.458605144 1.432360307 -6302.840144 6675.310762 -1258.70351 3123.30622
22 165.0004218 0.3828560432 7.141342886 5.523361072 1.489202893 -6187.782852 6260.728624 -1267.933811 3029.784158
23 165.0031485 0.2940700334 7.263205333 5.587561098 1.540102932 -6047.093056 5818.270044 -1265.223886 2930.894012
24 165.0060398 0.2167949382 7.378161364 5.647032328 1.583574889 -5883.463731 5360.460905 -1249.533877 2826.971537
25 165.0068511 0.1542825468 7.479383289 5.698073735 1.619808963 -5700.194336 4907.450149 -1221.267609 2718.128506
26 165.0080015 0.1421874607 7.562520285 5.739451128 1.648746403 -5500.4997 4487.105834 -1182.159817 2604.599739
27 165.0080698 0.08648104075 7.625669566 5.771843448 1.670748174 -5287.724257 4117.594031 -1134.998388 2487.112677
28 165.0073793 0.095237317 7.669609752 5.797377605 1.686713306 -5065.29378 3783.640157 -1083.017359 2366.858074
29 165.0128273 0.1217373345 7.700371083 5.818987422 1.698283014 -4836.646646 3487.14743 -1029.259589 2245.334517
30 165.0185653 0.1143874482 7.720129516 5.839872001 1.706764057 -4604.435257 3233.531039 -976.3281559 2123.736822
31 165.0228254 0.08274132599 7.732761966 5.863120946 1.712878989 -4370.320743 3015.178053 -925.9518618 2003.047635
32 165.0273485 0.05559954214 7.74317891 5.890905268 1.717192945 -4136.368071 2820.791297 -878.902651 1884.186584
33 165.0286246 0.001261068182 7.756072858 5.923383385 1.721444387 -3903.285619 2648.48971 -835.2668477 1767.894272
34 165.0275504 0.0003039257917 7.7752384 5.958417456 1.729258024 -3670.782103 2496.913454 -794.5874893 1655.219748
35 165.0225671 3.985263305e-06 7.802809835 5.992788679 1.744238158 -3439.649153 2374.59407 -756.1249634 1547.066382
36 165.0164892 0.000371806855 7.84094979 6.024615872 1.766935 -3210.784806 2260.934283 -718.9874752 1443.687057
37 165.0107192 0.0240295086 7.886763674 6.055660705 1.791460316 -2984.755031 2155.150742 -682.0626488 1343.96472
38 165.0068652 0.1030856628 7.935815227 6.086441683 1.814123431 -2762.046575 2042.361026 -644.5163098 1247.221066
39 165.0051215 0.1606025207 7.984581491 6.115722538 1.834340017 -2543.396845 1921.590163 -605.9009188 1153.252712
40 165.0056521 0.1864378961 8.030204527 6.142564598 1.851997231 -2330.735391 1800.600804 -566.3353949 1062.315472
41 165.0069746 0.07422493652 8.069938256 6.166809698 1.8664385 -2130.6868 1687.885022 -526.0712973 974.4681313
42 165.0076043 0.005818404804 8.102122131 6.188371145 1.877852519 -1939.947179 1585.843371 -485.4104917 889.8413988
43 165.0077089 0.02070237241 8.126003636 6.207731329 1.88641686 -1757.672451 1495.806173 -444.6867066 808.6951019
44 165.0064529 0.03015728927 8.142194248 6.225020876 1.893257405 -1583.928003 1414.292199 -404.2776729 731.4074128
45 165.0049179 0.07413547485 8.152859503 6.241130145 1.898460687 -1430.196021 1342.837261 -364.5997884 658.6367166
46 165.0026776 0.0005235093681 8.160465773 6.256016393 1.903120177 -1287.789013 1278.947507 -326.0942786 591.2495678
47 165.0019245 0.001761208628 8.16695147 6.269744732 1.907816906 -1155.762818 1222.754892 -289.2595518 530.177151
48 165.0036878 0.0003214176611 8.175151278 6.282019017 1.912887952 -1033.054298 1173.910828 -254.6100173 476.2103654
49 165.0083382 0.002552517998 8.186062721 6.292404565 1.918475476 -920.251382 1131.683608 -222.6673171 429.8189279
50 165.0133607 0.008366636629 8.195968346 6.299789639 1.925014511 -817.9381042 1099.814998 -193.9107416 391.0436505
