# Time           	Tmin             	at location      	Tmax             	at location      	Tmean            	TstDev           	Umin             	at location      	Umax             	at location      	Umean            	UstDev           	pmin             	at location      	pmax             	at location      	pmean            	pstDev           
0.05             3.0000000000e+02 ( -4.3499983351e-01 -1.9499996456e-01 4.4999972470e-02 ) 3.0211514203e+02 ( -2.1643959916e-01 1.4961159360e-02 4.8221343161e-02 ) 3.0000366940e+02 8.0911839824e-02 2.1893932623e-04 ( 5.8500000000e-01 5.8500000000e-01 -5.8500000000e-01 ) 1.2674414539e-01 ( -2.2105701822e-01 -1.4959527200e-02 1.0868907585e-01 ) 8.2912139505e-03 1.0978268147e-02 -6.7010957786e+00 ( 5.8500000000e-01 1.5000000000e-02 5.8500000000e-01 ) 6.9181329567e+00 ( -5.8500000000e-01 -1.5000000000e-02 -5.8500000000e-01 ) 1.0834056862e-01 4.0344050680e+00 
0.1              3.0000000000e+02 ( 3.1499999909e-01 4.6499999836e-01 -1.4999999921e-02 ) 3.0398584337e+02 ( -2.1643959916e-01 1.4961159360e-02 4.8221343161e-02 ) 3.0000721932e+02 1.5413902399e-01 2.1890035011e-04 ( 5.8500000000e-01 5.8500000000e-01 -5.8500000000e-01 ) 1.3000225906e-01 ( 2.1676121885e-01 1.4955400083e-02 -8.0300130239e-02 ) 8.4237015622e-03 1.1584341878e-02 -6.5775445295e+00 ( -5.8500000000e-01 1.5000000000e-02 5.8500000000e-01 ) 6.9836347518e+00 ( 5.8500000000e-01 -1.5000000000e-02 -5.8500000000e-01 ) 2.0267370434e-01 4.0338989680e+00 
0.15             3.0000000000e+02 ( -5.5500000000e-01 5.8500000000e-01 -3.7500000000e-01 ) 3.0556484765e+02 ( -2.1676121885e-01 1.4955400083e-02 8.0300130239e-02 ) 3.0001072645e+02 2.1798332037e-01 2.2067461605e-04 ( 5.8500000000e-01 5.8500000000e-01 -5.8500000000e-01 ) 1.3333485861e-01 ( -2.1676121885e-01 1.4955400083e-02 8.0300130239e-02 ) 8.5492351455e-03 1.1985799347e-02 -6.5817767111e+00 ( 5.8500000000e-01 1.5000000000e-02 5.8500000000e-01 ) 6.9253435995e+00 ( -5.8500000000e-01 1.5000000000e-02 -5.8500000000e-01 ) 1.7167983081e-01 4.0336849176e+00 
0.2              3.0000000000e+02 ( -5.5500000000e-01 -1.6500000000e-01 1.6500000000e-01 ) 3.0681146622e+02 ( -2.1651517820e-01 1.4964030341e-02 1.6050014875e-02 ) 3.0001421699e+02 2.7160963632e-01 2.2210017141e-04 ( 5.8500000000e-01 5.8500000000e-01 -5.8500000000e-01 ) 1.4089382426e-01 ( -2.1676121885e-01 1.4955400083e-02 8.0300130239e-02 ) 8.6623093993e-03 1.2276463791e-02 -6.5810887780e+00 ( 5.8500000000e-01 -1.5000000000e-02 5.8500000000e-01 ) 6.9252193043e+00 ( -5.8500000000e-01 1.5000000000e-02 -5.8500000000e-01 ) 1.7200470489e-01 4.0336286020e+00 
0.25             3.0000000000e+02 ( -5.5500000000e-01 -1.6500000000e-01 1.6500000000e-01 ) 3.0765685942e+02 ( -2.1651517820e-01 1.4964030341e-02 1.6050014875e-02 ) 3.0001770022e+02 3.1422549245e-01 2.2292396306e-04 ( 5.8500000000e-01 5.8500000000e-01 -5.8500000000e-01 ) 1.4662034466e-01 ( -2.1676121885e-01 1.4955400083e-02 8.0300130239e-02 ) 8.7631237250e-03 1.2507579773e-02 -6.5808892258e+00 ( 5.8500000000e-01 1.5000000000e-02 5.8500000000e-01 ) 6.9250967971e+00 ( -5.8500000000e-01 1.5000000000e-02 -5.8500000000e-01 ) 1.7209189880e-01 4.0335575822e+00 
0.3              3.0000000000e+02 ( -5.2500000000e-01 2.2500000000e-01 -5.8500000000e-01 ) 3.0816593514e+02 ( -2.1651517820e-01 -1.4964030341e-02 1.6050014875e-02 ) 3.0002117981e+02 3.4946089149e-01 2.2320267200e-04 ( 5.8500000000e-01 5.8500000000e-01 -5.8500000000e-01 ) 1.5043727065e-01 ( -2.1643959916e-01 -1.4961159360e-02 4.8221343161e-02 ) 8.8586886378e-03 1.2714194472e-02 -6.5808032074e+00 ( 5.8500000000e-01 -1.5000000000e-02 5.8500000000e-01 ) 6.9249536016e+00 ( -5.8500000000e-01 4.5000000000e-02 -5.8500000000e-01 ) 1.7210688405e-01 4.0334876015e+00 
0.35             3.0000000000e+02 ( -4.3500000000e-01 -1.0500000000e-01 5.8500000000e-01 ) 3.0847230462e+02 ( -2.1651517820e-01 -1.4964030341e-02 1.6050014875e-02 ) 3.0002465734e+02 3.8119275232e-01 2.2300887936e-04 ( 5.8500000000e-01 5.8500000000e-01 -5.8500000000e-01 ) 1.5436899728e-01 ( -2.1643959916e-01 -1.4961159360e-02 4.8221343161e-02 ) 8.9539722939e-03 1.2912268494e-02 -6.5807430123e+00 ( 5.8500000000e-01 -4.5000000000e-02 5.8500000000e-01 ) 6.9248260750e+00 ( -5.8500000000e-01 5.8500000000e-01 -5.8500000000e-01 ) 1.7210351422e-01 4.0334019850e+00 
0.4              3.0000000000e+02 ( -5.2500000000e-01 2.2500000000e-01 -5.8500000000e-01 ) 3.0867932979e+02 ( -2.1651517820e-01 -1.4964030341e-02 1.6050014875e-02 ) 3.0002813349e+02 4.1130997930e-01 2.2240748437e-04 ( 5.8500000000e-01 5.8500000000e-01 -5.8500000000e-01 ) 1.5743122925e-01 ( -2.1643959916e-01 -1.4961159360e-02 4.8221343161e-02 ) 9.0521544574e-03 1.3109114154e-02 -6.5806780196e+00 ( 5.8500000000e-01 -7.5000000000e-02 5.8500000000e-01 ) 6.9247126784e+00 ( -5.8500000000e-01 5.8500000000e-01 -5.8500000000e-01 ) 1.7210681255e-01 4.0333204250e+00 
0.45             3.0000000000e+02 ( -5.2500000000e-01 2.2500000000e-01 -5.8500000000e-01 ) 3.0883806988e+02 ( -2.1651517820e-01 -1.4964030341e-02 1.6050014875e-02 ) 3.0003160860e+02 4.4014948883e-01 2.2147898178e-04 ( 5.8500000000e-01 5.8500000000e-01 -5.8500000000e-01 ) 1.5942823115e-01 ( -2.1643959916e-01 -1.4961159360e-02 4.8221343161e-02 ) 9.1543955209e-03 1.3311318552e-02 -6.5806532190e+00 ( 5.8500000000e-01 -7.5000000000e-02 5.8500000000e-01 ) 6.9246093439e+00 ( -5.8500000000e-01 5.8500000000e-01 -5.8500000000e-01 ) 1.7209580369e-01 4.0332578073e+00 
0.5              3.0000000000e+02 ( -5.2500000000e-01 2.2500000000e-01 -5.8500000000e-01 ) 3.0896701422e+02 ( -2.1651517820e-01 -1.4964030341e-02 1.6050014875e-02 ) 3.0003508287e+02 4.6761999436e-01 2.2021528230e-04 ( 5.8500000000e-01 5.8500000000e-01 -5.8500000000e-01 ) 1.6057949310e-01 ( -2.1643959916e-01 -1.4961159360e-02 4.8221343161e-02 ) 9.2595893637e-03 1.3522204671e-02 -6.5805732703e+00 ( 5.8500000000e-01 -5.8500000000e-01 5.8500000000e-01 ) 6.9245081253e+00 ( -5.8500000000e-01 5.8500000000e-01 -5.8500000000e-01 ) 1.7211450329e-01 4.0331758683e+00 
0.55             3.0000000000e+02 ( 1.0500000000e-01 5.8500000000e-01 -4.3500000000e-01 ) 3.0907230761e+02 ( -2.1651517820e-01 -1.4964030341e-02 1.6050014875e-02 ) 3.0003855646e+02 4.9367096570e-01 2.1861823201e-04 ( 5.8500000000e-01 5.8500000000e-01 -5.8500000000e-01 ) 1.6119549500e-01 ( -2.1643959916e-01 -1.4961159360e-02 4.8221343161e-02 ) 9.3678077437e-03 1.3743669932e-02 -6.5804924897e+00 ( 5.8500000000e-01 -5.8500000000e-01 5.8500000000e-01 ) 6.9243976449e+00 ( -5.8500000000e-01 5.8500000000e-01 -5.8500000000e-01 ) 1.7213277720e-01 4.0330914756e+00 
0.6              3.0000000000e+02 ( -5.2500000000e-01 2.2500000000e-01 -5.8500000000e-01 ) 3.0915666589e+02 ( -2.1651517820e-01 -1.4964030341e-02 1.6050014875e-02 ) 3.0004202952e+02 5.1840924295e-01 2.1669697762e-04 ( 5.8500000000e-01 5.8500000000e-01 -5.8500000000e-01 ) 1.6150462620e-01 ( -2.1643959916e-01 -1.4961159360e-02 4.8221343161e-02 ) 9.4788000003e-03 1.3977082403e-02 -6.5803954696e+00 ( 5.8500000000e-01 -5.8500000000e-01 5.8500000000e-01 ) 6.9242962539e+00 ( -5.8500000000e-01 5.8500000000e-01 -5.8500000000e-01 ) 1.7216485103e-01 4.0330128987e+00 
0.65             3.0000000000e+02 ( -5.2500000000e-01 2.2500000000e-01 -5.8500000000e-01 ) 3.0922171187e+02 ( -2.1651517820e-01 -1.4964030341e-02 1.6050014875e-02 ) 3.0004550215e+02 5.4190415558e-01 2.1449893024e-04 ( 5.8500000000e-01 5.8500000000e-01 -5.8500000000e-01 ) 1.6366712503e-01 ( -2.4998857195e-01 -1.4964613310e-02 4.6226112198e-02 ) 9.5936649554e-03 1.4225562957e-02 -6.5803338042e+00 ( 5.8500000000e-01 -5.8500000000e-01 5.8500000000e-01 ) 6.9242006791e+00 ( -5.8500000000e-01 5.8500000000e-01 -5.8500000000e-01 ) 1.7218104517e-01 4.0329440291e+00 
0.7              3.0000000000e+02 ( -5.5500000000e-01 2.2500000000e-01 -5.8500000000e-01 ) 3.0927078184e+02 ( -2.1651517820e-01 -1.4964030341e-02 1.6050014875e-02 ) 3.0004897445e+02 5.6429321490e-01 2.1204494199e-04 ( 5.8500000000e-01 5.8500000000e-01 -5.8500000000e-01 ) 1.6661534019e-01 ( -2.4998857195e-01 -1.4964613310e-02 4.6226112198e-02 ) 9.7133201995e-03 1.4490815895e-02 -6.5802607095e+00 ( 5.8500000000e-01 -5.8500000000e-01 5.8500000000e-01 ) 6.9241683370e+00 ( 5.8500000000e-01 5.5500000000e-01 -5.8500000000e-01 ) 1.7220378578e-01 4.0328701574e+00 
0.75             3.0000000000e+02 ( 1.6500000000e-01 5.8500000000e-01 -5.8500000000e-01 ) 3.0930844464e+02 ( -2.1651517820e-01 -1.4964030341e-02 1.6050014875e-02 ) 3.0005244648e+02 5.8573641017e-01 2.0936414817e-04 ( 5.8500000000e-01 5.8500000000e-01 -5.8500000000e-01 ) 1.6931842352e-01 ( -2.4998857195e-01 -1.4964613310e-02 4.6226112198e-02 ) 9.8391767980e-03 1.4775178826e-02 -6.5802000489e+00 ( 5.8500000000e-01 5.8500000000e-01 5.8500000000e-01 ) 6.9241645530e+00 ( 5.8500000000e-01 5.5500000000e-01 -5.8500000000e-01 ) 1.7222173278e-01 4.0328016695e+00 
0.8              3.0000000000e+02 ( 1.6500000000e-01 5.8500000000e-01 -5.8500000000e-01 ) 3.0933824685e+02 ( -2.1651517820e-01 -1.4964030341e-02 1.6050014875e-02 ) 3.0005591830e+02 6.0632875191e-01 2.0647443115e-04 ( 5.8500000000e-01 5.8500000000e-01 -5.8500000000e-01 ) 1.7196055505e-01 ( -2.4998857195e-01 -1.4964613310e-02 4.6226112198e-02 ) 9.9719834788e-03 1.5079777567e-02 -6.5801334504e+00 ( 5.8500000000e-01 5.8500000000e-01 5.8500000000e-01 ) 6.9241682289e+00 ( 5.8500000000e-01 5.5500000000e-01 -5.8500000000e-01 ) 1.7224433298e-01 4.0327342263e+00 
0.85             3.0000000000e+02 ( 1.6500000000e-01 5.8500000000e-01 -5.8500000000e-01 ) 3.0936212216e+02 ( -2.1651517820e-01 -1.4964030341e-02 1.6050014875e-02 ) 3.0005938995e+02 6.2621428452e-01 2.0339882982e-04 ( 5.8500000000e-01 5.8500000000e-01 -5.8500000000e-01 ) 1.7458868381e-01 ( -2.4998857195e-01 -1.4964613310e-02 4.6226112198e-02 ) 1.0111062450e-02 1.5405030356e-02 -6.5800579423e+00 ( 5.8500000000e-01 5.8500000000e-01 5.8500000000e-01 ) 6.9241920405e+00 ( 5.8500000000e-01 5.5500000000e-01 -5.8500000000e-01 ) 1.7227714929e-01 4.0326746000e+00 
0.9              3.0000000000e+02 ( 1.6500000000e-01 5.8500000000e-01 -5.8500000000e-01 ) 3.0938131224e+02 ( -2.1651517820e-01 -1.4964030341e-02 1.6050014875e-02 ) 3.0006286147e+02 6.4548886946e-01 2.0015192564e-04 ( 5.8500000000e-01 5.8500000000e-01 -5.8500000000e-01 ) 1.7717758872e-01 ( -2.4998857195e-01 -1.4964613310e-02 4.6226112198e-02 ) 1.0257045362e-02 1.5752668796e-02 -6.5799879676e+00 ( 5.8500000000e-01 5.8500000000e-01 5.8500000000e-01 ) 6.9242022207e+00 ( 5.8500000000e-01 5.5500000000e-01 -5.8500000000e-01 ) 1.7230494875e-01 4.0326088524e+00 
0.95             3.0000000000e+02 ( 1.6500000000e-01 5.8500000000e-01 -5.8500000000e-01 ) 3.0939670492e+02 ( -2.1651517820e-01 -1.4964030341e-02 1.6050014875e-02 ) 3.0006633289e+02 6.6417752592e-01 1.9673904548e-04 ( 5.8500000000e-01 5.8500000000e-01 -5.8500000000e-01 ) 1.7963544847e-01 ( -2.4998857195e-01 -1.4964613310e-02 4.6226112198e-02 ) 1.0410428478e-02 1.6123036669e-02 -6.5799099202e+00 ( 5.8500000000e-01 5.8500000000e-01 5.8500000000e-01 ) 6.9242168625e+00 ( 5.8500000000e-01 5.5500000000e-01 -5.8500000000e-01 ) 1.7233724894e-01 4.0325389157e+00 
1                3.0000000000e+02 ( 1.6500000000e-01 5.8500000000e-01 -5.8500000000e-01 ) 3.0940899492e+02 ( -2.1651517820e-01 -1.4964030341e-02 1.6050014875e-02 ) 3.0006980424e+02 6.8222624073e-01 1.9318219738e-04 ( 5.8500000000e-01 5.8500000000e-01 -5.8500000000e-01 ) 1.8186654869e-01 ( -2.4998857195e-01 -1.4964613310e-02 4.6226112198e-02 ) 1.0571229004e-02 1.6515650031e-02 -6.5798261699e+00 ( 5.8500000000e-01 -5.8500000000e-01 5.8500000000e-01 ) 6.9242518955e+00 ( 5.8500000000e-01 5.5500000000e-01 -5.8500000000e-01 ) 1.7237904343e-01 4.0324804861e+00 
1.05             3.0000000000e+02 ( 1.6500000000e-01 5.8500000000e-01 -5.8500000000e-01 ) 3.0941879078e+02 ( -2.1651517820e-01 -1.4964030341e-02 1.6050014875e-02 ) 3.0007327555e+02 6.9962293186e-01 1.8949995585e-04 ( 5.8500000000e-01 5.8500000000e-01 -5.8500000000e-01 ) 1.8409282361e-01 ( -2.8290390369e-01 -1.4982729586e-02 4.5198322651e-02 ) 1.0740243717e-02 1.6930418835e-02 -6.5797508612e+00 ( 5.8500000000e-01 -5.8500000000e-01 5.8500000000e-01 ) 6.9242789713e+00 ( 5.8500000000e-01 5.5500000000e-01 -5.8500000000e-01 ) 1.7241523154e-01 4.0324210939e+00 
1.1              3.0000000000e+02 ( -5.8500000000e-01 -5.8500000000e-01 -5.8500000000e-01 ) 3.0942662332e+02 ( -2.1643959916e-01 -1.4961159360e-02 4.8221343161e-02 ) 3.0007674684e+02 7.1645712726e-01 1.8570405681e-04 ( 5.8500000000e-01 5.8500000000e-01 -5.8500000000e-01 ) 1.8932880422e-01 ( -2.8341733744e-01 1.4984672877e-02 7.5083737149e-02 ) 1.0918230749e-02 1.7367881358e-02 -6.5796730076e+00 ( 5.8500000000e-01 5.8500000000e-01 5.8500000000e-01 ) 6.9243046707e+00 ( 5.8500000000e-01 5.5500000000e-01 -5.8500000000e-01 ) 1.7245328732e-01 4.0323584210e+00 
1.15             3.0000000000e+02 ( -5.8500000000e-01 -5.8500000000e-01 -5.8500000000e-01 ) 3.0943288129e+02 ( -2.1643959916e-01 -1.4961159360e-02 4.8221343161e-02 ) 3.0008021813e+02 7.3277813294e-01 1.8181886489e-04 ( 5.8500000000e-01 5.8500000000e-01 -5.8500000000e-01 ) 1.9446468009e-01 ( -2.8341733744e-01 1.4984672877e-02 7.5083737149e-02 ) 1.1105817500e-02 1.7828394348e-02 -6.5796021715e+00 ( 5.8500000000e-01 5.8500000000e-01 5.8500000000e-01 ) 6.9243331412e+00 ( 5.8500000000e-01 5.5500000000e-01 -5.8500000000e-01 ) 1.7249171335e-01 4.0323016298e+00 
1.2              3.0000000000e+02 ( -5.8500000000e-01 -5.8500000000e-01 -5.8500000000e-01 ) 3.0943781977e+02 ( -2.1643959916e-01 -1.4961159360e-02 4.8221343161e-02 ) 3.0008368944e+02 7.4859302259e-01 1.7784173686e-04 ( 5.8500000000e-01 5.8500000000e-01 -5.8500000000e-01 ) 1.9910534037e-01 ( -2.8341733744e-01 1.4984672877e-02 7.5083737149e-02 ) 1.1303621553e-02 1.8312666054e-02 -6.5795202878e+00 ( 5.8500000000e-01 5.8500000000e-01 5.8500000000e-01 ) 6.9243600942e+00 ( 5.8500000000e-01 5.5500000000e-01 -5.8500000000e-01 ) 1.7253446554e-01 4.0322349060e+00 
1.25             3.0000000000e+02 ( -5.8500000000e-01 -5.8500000000e-01 -5.8500000000e-01 ) 3.0944169751e+02 ( -2.1643959916e-01 -1.4961159360e-02 4.8221343161e-02 ) 3.0008716077e+02 7.6392051380e-01 1.7379146011e-04 ( 5.8500000000e-01 5.8500000000e-01 -5.8500000000e-01 ) 2.0345024000e-01 ( -2.8341733744e-01 1.4984672877e-02 7.5083737149e-02 ) 1.1511996890e-02 1.8819403071e-02 -6.5794404466e+00 ( 5.8500000000e-01 5.8500000000e-01 5.8500000000e-01 ) 6.9243938340e+00 ( 5.8500000000e-01 5.5500000000e-01 -5.8500000000e-01 ) 1.7257915595e-01 4.0321753568e+00 
1.3              3.0000000000e+02 ( -5.8500000000e-01 -5.8500000000e-01 -5.8500000000e-01 ) 3.0944472989e+02 ( -2.1643959916e-01 -1.4961159360e-02 4.8221343161e-02 ) 3.0009063213e+02 7.7875505253e-01 1.6969355529e-04 ( 5.8500000000e-01 5.8500000000e-01 -5.8500000000e-01 ) 2.0754766280e-01 ( -2.8343545397e-01 4.4945574110e-02 7.5087342159e-02 ) 1.1729839944e-02 1.9347403041e-02 -6.5793526785e+00 ( 5.8500000000e-01 5.8500000000e-01 5.8500000000e-01 ) 6.9244477053e+00 ( 5.8500000000e-01 5.5500000000e-01 -5.8500000000e-01 ) 1.7263348206e-01 4.0321284838e+00 
1.35             3.0000000000e+02 ( -5.8500000000e-01 -5.8500000000e-01 -5.8500000000e-01 ) 3.0944709171e+02 ( -2.1643959916e-01 -1.4961159360e-02 4.8221343161e-02 ) 3.0009410352e+02 7.9309552408e-01 1.6555833518e-04 ( 5.8500000000e-01 5.8500000000e-01 -5.8500000000e-01 ) 2.1316544886e-01 ( -2.8411280781e-01 1.4988534018e-02 1.0495499729e-01 ) 1.1957026978e-02 1.9896427549e-02 -6.5792574430e+00 ( 5.8500000000e-01 -5.8500000000e-01 5.8500000000e-01 ) 6.9245080353e+00 ( 5.8500000000e-01 5.5500000000e-01 -5.8500000000e-01 ) 1.7269444735e-01 4.0320785057e+00 
1.4              3.0000000000e+02 ( -5.8500000000e-01 -5.8500000000e-01 -5.8500000000e-01 ) 3.0944892310e+02 ( -2.1643959916e-01 -1.4961159360e-02 4.8221343161e-02 ) 3.0009757494e+02 8.0698497522e-01 1.6139736942e-04 ( 5.8500000000e-01 5.8500000000e-01 -5.8500000000e-01 ) 2.1813412152e-01 ( -2.8411280781e-01 1.4988534018e-02 1.0495499729e-01 ) 1.2194158972e-02 2.0466055593e-02 -6.5791600984e+00 ( 5.8500000000e-01 5.8500000000e-01 5.8500000000e-01 ) 6.9245692779e+00 ( 5.8500000000e-01 5.5500000000e-01 -5.8500000000e-01 ) 1.7275750360e-01 4.0320282788e+00 
1.45             3.0000000000e+02 ( -5.8500000000e-01 -5.8500000000e-01 -5.8500000000e-01 ) 3.0945033564e+02 ( -2.1643959916e-01 -1.4961159360e-02 4.8221343161e-02 ) 3.0010104640e+02 8.2044566123e-01 1.5721662820e-04 ( 5.8500000000e-01 5.8500000000e-01 -5.8500000000e-01 ) 2.2247803522e-01 ( -2.8411280781e-01 1.4988534018e-02 1.0495499729e-01 ) 1.2441756824e-02 2.1056074706e-02 -6.5790594158e+00 ( 5.8500000000e-01 5.8500000000e-01 5.8500000000e-01 ) 6.9246296222e+00 ( 5.8500000000e-01 5.5500000000e-01 -5.8500000000e-01 ) 1.7282076875e-01 4.0319735322e+00 
1.5              3.0000000000e+02 ( -5.8500000000e-01 -5.8500000000e-01 -5.8500000000e-01 ) 3.0945141787e+02 ( -2.1643959916e-01 -1.4961159360e-02 4.8221343161e-02 ) 3.0010451788e+02 8.3351880823e-01 1.5302732854e-04 ( 5.8500000000e-01 5.8500000000e-01 -5.8500000000e-01 ) 2.2621967777e-01 ( -2.8411280781e-01 1.4988534018e-02 1.0495499729e-01 ) 1.2699627501e-02 2.1666416407e-02 -6.5789587065e+00 ( 5.8500000000e-01 5.8500000000e-01 5.8500000000e-01 ) 6.9246916104e+00 ( 5.8500000000e-01 5.5500000000e-01 -5.8500000000e-01 ) 1.7288611953e-01 4.0319196493e+00 
1.55             3.0000000000e+02 ( -5.8500000000e-01 -5.8500000000e-01 -5.8500000000e-01 ) 3.0945224034e+02 ( -2.1643959916e-01 -1.4961159360e-02 4.8221343161e-02 ) 3.0010798938e+02 8.4622329297e-01 1.4885702814e-04 ( 5.8500000000e-01 5.8500000000e-01 -5.8500000000e-01 ) 2.3203649590e-01 ( -3.1451942817e-01 7.4965171185e-02 7.4948300782e-02 ) 1.2967840119e-02 2.2296434323e-02 -6.5788601072e+00 ( 5.8500000000e-01 5.8500000000e-01 5.8500000000e-01 ) 6.9247645232e+00 ( 5.8500000000e-01 5.5500000000e-01 -5.8500000000e-01 ) 1.7295718499e-01 4.0318773575e+00 
1.6              3.0000000000e+02 ( -5.8500000000e-01 -5.8500000000e-01 -5.8500000000e-01 ) 3.0945285894e+02 ( -2.1643959916e-01 -1.4961159360e-02 4.8221343161e-02 ) 3.0011146090e+02 8.5858190649e-01 1.4472471502e-04 ( 5.8500000000e-01 5.8500000000e-01 -5.8500000000e-01 ) 2.3837162595e-01 ( -3.1454020160e-01 1.0494076517e-01 7.4953553201e-02 ) 1.3246708307e-02 2.2945625156e-02 -6.5787595280e+00 ( 5.8500000000e-01 5.8500000000e-01 5.8500000000e-01 ) 6.9248396573e+00 ( 5.8500000000e-01 5.5500000000e-01 -5.8500000000e-01 ) 1.7302967254e-01 4.0318346940e+00 
1.65             3.0000000000e+02 ( -5.8500000000e-01 -5.8500000000e-01 -5.8500000000e-01 ) 3.0945331736e+02 ( -2.1643959916e-01 -1.4961159360e-02 4.8221343161e-02 ) 3.0011493243e+02 8.7060801406e-01 1.4065471843e-04 ( 5.8500000000e-01 5.8500000000e-01 -5.8500000000e-01 ) 2.4463043898e-01 ( -3.1456362939e-01 1.3491085760e-01 7.4959475017e-02 ) 1.3536768487e-02 2.3613077849e-02 -6.5786683029e+00 ( 5.8500000000e-01 -5.8500000000e-01 5.8500000000e-01 ) 6.9249137655e+00 ( 5.8500000000e-01 5.5500000000e-01 -5.8500000000e-01 ) 1.7310000589e-01 4.0317982022e+00 
1.7              3.0000000000e+02 ( -5.8500000000e-01 -5.8500000000e-01 -5.8500000000e-01 ) 3.0945364953e+02 ( -2.1643959916e-01 -1.4961159360e-02 4.8221343161e-02 ) 3.0011840396e+02 8.8229434403e-01 1.3610250255e-04 ( 5.8500000000e-01 5.8500000000e-01 -5.5500000000e-01 ) 2.5072092116e-01 ( -3.1456362939e-01 1.3491085760e-01 7.4959475017e-02 ) 1.3837710521e-02 2.4298226283e-02 -6.5785686753e+00 ( 5.8500000000e-01 5.8500000000e-01 5.8500000000e-01 ) 6.9249964751e+00 ( 5.8500000000e-01 5.5500000000e-01 -5.8500000000e-01 ) 1.7317839007e-01 4.0317628094e+00 
1.75             3.0000000000e+02 ( -5.8500000000e-01 -5.8500000000e-01 -5.8500000000e-01 ) 3.0945388157e+02 ( -2.1643959916e-01 1.4961159360e-02 4.8221343161e-02 ) 3.0012187549e+02 8.9363287937e-01 1.3105763450e-04 ( 5.8500000000e-01 5.8500000000e-01 -5.5500000000e-01 ) 2.5670683197e-01 ( -3.1459015637e-01 1.6487624660e-01 7.4963200143e-02 ) 1.4149004357e-02 2.5000132420e-02 -6.5784577598e+00 ( 5.8500000000e-01 5.8500000000e-01 5.8500000000e-01 ) 6.9250828407e+00 ( 5.8500000000e-01 5.5500000000e-01 -5.8500000000e-01 ) 1.7326025521e-01 4.0317223415e+00 
1.8              3.0000000000e+02 ( -5.8500000000e-01 -5.8500000000e-01 -5.8500000000e-01 ) 3.0945403353e+02 ( -2.1643959916e-01 1.4961159360e-02 4.8221343161e-02 ) 3.0012534699e+02 9.0462171028e-01 1.2436964243e-04 ( 5.8500000000e-01 5.8500000000e-01 -5.2500000000e-01 ) 2.6246830674e-01 ( -3.1459015637e-01 1.6487624660e-01 7.4963200143e-02 ) 1.4470874393e-02 2.5717802431e-02 -6.5783582868e+00 ( 5.8500000000e-01 5.8500000000e-01 5.8500000000e-01 ) 6.9251661160e+00 ( 5.8500000000e-01 5.2500000000e-01 -5.8500000000e-01 ) 1.7333843022e-01 4.0316872890e+00 
1.85             3.0000000000e+02 ( -5.8500000000e-01 -5.8500000000e-01 -5.8500000000e-01 ) 3.0945412070e+02 ( -2.1643959916e-01 1.4961159360e-02 4.8221343161e-02 ) 3.0012881847e+02 9.1527573760e-01 1.1772847857e-04 ( 5.8500000000e-01 5.8500000000e-01 -5.2500000000e-01 ) 2.6772054852e-01 ( -3.1459015637e-01 1.6487624660e-01 7.4963200143e-02 ) 1.4803154922e-02 2.6450125986e-02 -6.5782537399e+00 ( 5.8500000000e-01 5.8500000000e-01 5.8500000000e-01 ) 6.9252599456e+00 ( 5.8500000000e-01 5.2500000000e-01 -5.8500000000e-01 ) 1.7342303734e-01 4.0316580325e+00 
1.9              3.0000000000e+02 ( -5.8500000000e-01 -5.8500000000e-01 -5.8500000000e-01 ) 3.0945415459e+02 ( -2.1643959916e-01 1.4961159360e-02 4.8221343161e-02 ) 3.0013228991e+02 9.2562972431e-01 1.1344631508e-04 ( 5.8500000000e-01 5.8500000000e-01 -5.2500000000e-01 ) 2.7260427104e-01 ( -3.1459015637e-01 1.6487624660e-01 7.4963200143e-02 ) 1.5145711003e-02 2.7196732780e-02 -6.5781442447e+00 ( 5.8500000000e-01 5.8500000000e-01 5.8500000000e-01 ) 6.9253587763e+00 ( 5.8500000000e-01 5.2500000000e-01 -5.8500000000e-01 ) 1.7351134735e-01 4.0316303115e+00 
1.95             3.0000000000e+02 ( -5.8500000000e-01 -5.8500000000e-01 -5.8500000000e-01 ) 3.0945414408e+02 ( -2.1643959916e-01 1.4961159360e-02 4.8221343161e-02 ) 3.0013576131e+02 9.3567679516e-01 1.1160803405e-04 ( 5.8500000000e-01 5.8500000000e-01 -5.2500000000e-01 ) 2.7722809700e-01 ( -3.1459015637e-01 1.6487624660e-01 7.4963200143e-02 ) 1.5498473906e-02 2.7957085550e-02 -6.5780395065e+00 ( 5.8500000000e-01 5.8500000000e-01 5.8500000000e-01 ) 6.9254572871e+00 ( 5.8500000000e-01 5.2500000000e-01 -5.8500000000e-01 ) 1.7359777595e-01 4.0316067836e+00 
2                3.0000000000e+02 ( -5.8500000000e-01 -5.8500000000e-01 -5.8500000000e-01 ) 3.0945410060e+02 ( -2.1643959916e-01 1.4961159360e-02 4.8221343161e-02 ) 3.0013923266e+02 9.4541027220e-01 1.1201788150e-04 ( 5.8500000000e-01 5.8500000000e-01 -5.2500000000e-01 ) 2.8193782469e-01 ( -3.1489276876e-01 1.3496926840e-01 1.3495815389e-01 ) 1.5861371553e-02 2.8730528177e-02 -6.5779331043e+00 ( 5.8500000000e-01 5.8500000000e-01 5.8500000000e-01 ) 6.9255599836e+00 ( 5.8500000000e-01 5.2500000000e-01 -5.8500000000e-01 ) 1.7368723751e-01 4.0315870497e+00 
2.05             3.0000000000e+02 ( -5.8500000000e-01 -5.8500000000e-01 -5.8500000000e-01 ) 3.0945403166e+02 ( -2.1643959916e-01 1.4961159360e-02 4.8221343161e-02 ) 3.0014270396e+02 9.5482167231e-01 1.1075599683e-04 ( 5.8500000000e-01 5.8500000000e-01 -5.8500000000e-01 ) 2.8875513254e-01 ( -3.4493430750e-01 1.3498857646e-01 1.0497639732e-01 ) 1.6234533017e-02 2.9515916503e-02 -6.5778146374e+00 ( 5.8500000000e-01 5.8500000000e-01 5.8500000000e-01 ) 6.9256673223e+00 ( 5.8500000000e-01 5.2500000000e-01 -5.8500000000e-01 ) 1.7378108337e-01 4.0315623992e+00 
2.1              3.0000000000e+02 ( -5.8500000000e-01 -5.8500000000e-01 -5.8500000000e-01 ) 3.0945394257e+02 ( -2.1643959916e-01 1.4961159360e-02 4.8221343161e-02 ) 3.0014617521e+02 9.6393696123e-01 1.0749981692e-04 ( 5.8500000000e-01 5.8500000000e-01 -5.8500000000e-01 ) 2.9585888974e-01 ( -3.4493430750e-01 1.3498857646e-01 1.0497639732e-01 ) 1.6618524596e-02 3.0312087251e-02 -6.5777475062e+00 ( 5.8500000000e-01 5.8500000000e-01 5.8500000000e-01 ) 6.9257469976e+00 ( 5.8500000000e-01 5.2500000000e-01 -5.8500000000e-01 ) 1.7384973548e-01 4.0315512846e+00 
2.15             3.0000000000e+02 ( -5.8500000000e-01 -5.8500000000e-01 -5.8500000000e-01 ) 3.0945383741e+02 ( -2.1643959916e-01 1.4961159360e-02 4.8221343161e-02 ) 3.0014964641e+02 9.7275527669e-01 1.0444846577e-04 ( 5.8500000000e-01 5.8500000000e-01 -5.8500000000e-01 ) 3.0235912084e-01 ( -3.4496753325e-01 1.3499394561e-01 1.3498252692e-01 ) 1.7012656405e-02 3.1117977714e-02 -6.5776645435e+00 ( 5.8500000000e-01 5.8500000000e-01 5.8500000000e-01 ) 6.9258405741e+00 ( 5.8500000000e-01 5.2500000000e-01 -5.8500000000e-01 ) 1.7392981859e-01 4.0315410742e+00 
2.2              3.0000000000e+02 ( -5.8500000000e-01 -5.8500000000e-01 -5.8500000000e-01 ) 3.0945371942e+02 ( -2.1643959916e-01 1.4961159360e-02 4.8221343161e-02 ) 3.0015311755e+02 9.8122976131e-01 1.0156962093e-04 ( 5.8500000000e-01 5.8500000000e-01 -5.8500000000e-01 ) 3.0996306657e-01 ( -3.4496753325e-01 1.3499394561e-01 1.3498252692e-01 ) 1.7415488193e-02 3.1932403835e-02 -6.5775433212e+00 ( 5.8500000000e-01 5.8500000000e-01 5.8500000000e-01 ) 6.9259623472e+00 ( 5.8500000000e-01 5.2500000000e-01 -5.8500000000e-01 ) 1.7402927851e-01 4.0315317081e+00 
2.25             3.0000000000e+02 ( -5.8500000000e-01 -5.8500000000e-01 -5.8500000000e-01 ) 3.0945359131e+02 ( -2.1643959916e-01 1.4961159360e-02 4.8221343161e-02 ) 3.0015658865e+02 9.8938539088e-01 9.8853308345e-05 ( 5.8500000000e-01 5.8500000000e-01 -5.8500000000e-01 ) 3.1667771893e-01 ( -3.4496753325e-01 1.3499394561e-01 1.3498252692e-01 ) 1.7827031492e-02 3.2754098580e-02 -6.5774537327e+00 ( 5.8500000000e-01 5.8500000000e-01 5.8500000000e-01 ) 6.9260616095e+00 ( 5.8500000000e-01 4.9500000000e-01 -5.8500000000e-01 ) 1.7410985700e-01 4.0315265267e+00 
2.3              3.0000000000e+02 ( -5.8500000000e-01 -5.8500000000e-01 -5.8500000000e-01 ) 3.0945345528e+02 ( -2.1643959916e-01 -1.4961159360e-02 4.8221343161e-02 ) 3.0016005969e+02 9.9727945924e-01 9.6296518207e-05 ( 5.8500000000e-01 5.8500000000e-01 -5.8500000000e-01 ) 3.2288508473e-01 ( -3.4496753325e-01 1.3499394561e-01 1.3498252692e-01 ) 1.8247193803e-02 3.3582182409e-02 -6.5773611070e+00 ( 5.8500000000e-01 5.8500000000e-01 5.8500000000e-01 ) 6.9261655548e+00 ( 5.8500000000e-01 4.9500000000e-01 -5.8500000000e-01 ) 1.7419319935e-01 4.0315245202e+00 
2.35             3.0000000000e+02 ( -5.8500000000e-01 -5.8500000000e-01 -5.8500000000e-01 ) 3.0945331321e+02 ( -2.1643959916e-01 -1.4961159360e-02 4.8221343161e-02 ) 3.0016353067e+02 1.0049172894e+00 9.3902757684e-05 ( 5.8500000000e-01 5.8500000000e-01 -5.8500000000e-01 ) 3.2872642465e-01 ( -3.4496753325e-01 1.3499394561e-01 1.3498252692e-01 ) 1.8676000323e-02 3.4416202055e-02 -6.5772768755e+00 ( 5.8500000000e-01 5.8500000000e-01 5.8500000000e-01 ) 6.9262629715e+00 ( 5.8500000000e-01 4.9500000000e-01 -5.8500000000e-01 ) 1.7426898807e-01 4.0315254757e+00 
2.4              3.0000000000e+02 ( -5.8500000000e-01 -5.8500000000e-01 -5.8500000000e-01 ) 3.0945316665e+02 ( -2.1643959916e-01 -1.4961159360e-02 4.8221343161e-02 ) 3.0016700160e+02 1.0123017064e+00 9.1669096809e-05 ( 5.8500000000e-01 5.8500000000e-01 -5.8500000000e-01 ) 3.3428693594e-01 ( -3.4496753325e-01 1.3499394561e-01 1.3498252692e-01 ) 1.9113452097e-02 3.5255835413e-02 -6.5771929322e+00 ( 5.8500000000e-01 5.8500000000e-01 5.8500000000e-01 ) 6.9263623036e+00 ( 5.8500000000e-01 4.9500000000e-01 -5.8500000000e-01 ) 1.7434499331e-01 4.0315296457e+00 
2.45             3.0000000000e+02 ( -5.8500000000e-01 -5.8500000000e-01 -5.8500000000e-01 ) 3.0945301693e+02 ( -2.1643959916e-01 -1.4961159360e-02 4.8221343161e-02 ) 3.0017047247e+02 1.0194235538e+00 8.9596643708e-05 ( 5.8500000000e-01 5.8500000000e-01 -5.8500000000e-01 ) 3.3997822429e-01 ( -3.4498852701e-01 1.3499764244e-01 1.6499153620e-01 ) 1.9559204900e-02 3.6100621340e-02 -6.5770976374e+00 ( 5.8500000000e-01 5.8500000000e-01 5.8500000000e-01 ) 6.9264704739e+00 ( 5.8500000000e-01 4.9500000000e-01 -5.8500000000e-01 ) 1.7442617721e-01 4.0315367447e+00 
2.5              3.0000000000e+02 ( -5.8500000000e-01 -5.8500000000e-01 -5.8500000000e-01 ) 3.0945286517e+02 ( -2.1643959916e-01 -1.4961159360e-02 4.8221343161e-02 ) 3.0017394328e+02 1.0263222778e+00 8.7691800916e-05 ( 5.8500000000e-01 5.8500000000e-01 -5.8500000000e-01 ) 3.4572807553e-01 ( -3.4498852701e-01 1.3499764244e-01 1.6499153620e-01 ) 2.0012974672e-02 3.6950105209e-02 -6.5770644448e+00 ( 5.8500000000e-01 5.8500000000e-01 5.8500000000e-01 ) 6.9265379834e+00 ( 5.8500000000e-01 4.9500000000e-01 -5.8500000000e-01 ) 1.7447239542e-01 4.0315533650e+00 
