# Fractional effective dose (average)
# Time           	FED (incapacitation)	FED (CO)         	HV_CO2           	FED (O2)         
5                	1.7695209515e-05	1.3399050016e-07	1.0411805485e+00	1.7555701212e-05
