# Time           	Umin             	at location      	Umax             	at location      	Umean            	UstDev           	pmin             	at location      	pmax             	at location      	pmean            	pstDev           
5                1.7936237155e+00 ( 4.0000000000e+00 -1.1200000000e+02 2.9829593285e-01 ) 1.0181379061e+01 ( 1.9999991937e+01 6.4000000000e+01 3.9608323950e+02 ) 8.7726288521e+00 7.2965988882e-01 -3.6162594762e+00 ( 4.0000000000e+00 -1.4400000000e+02 1.5518845905e+00 ) 1.3709987993e-01 ( 2.4400000000e+02 1.4400000000e+02 2.9829593285e-01 ) -1.8951979999e-01 4.8379775226e-01 
