# Time           	Umin             	at location      	Umax             	at location      	Umean            	UstDev           
5                1.4723971942e-07 ( 4.7500000000e+00 4.7500000000e+00 8.2500000000e+00 ) 2.3541215137e-03 ( -1.2499826003e+00 7.4999310062e-01 1.2498332887e+00 ) 4.6798609644e-05 1.2419940677e-04 
10               5.1555060749e-07 ( 4.7500000000e+00 4.7500000000e+00 8.2500000000e+00 ) 6.4979556404e-03 ( -1.2499826003e+00 7.4999310062e-01 1.2498332887e+00 ) 1.3769491995e-04 3.5493341185e-04 
15               1.7822134724e-06 ( 4.7500000000e+00 4.7500000000e+00 7.7500000000e+00 ) 1.2742297796e-02 ( -1.2499945888e+00 2.4999537167e-01 1.2498441506e+00 ) 2.8224735131e-04 7.0148850185e-04 
20               4.7598791142e-07 ( -2.5000000000e-01 -1.7500000000e+00 8.2500000000e+00 ) 2.1306493408e-02 ( -1.2499945888e+00 2.4999537167e-01 1.2498441506e+00 ) 4.6043049164e-04 1.1684682116e-03 
25               3.5100365455e-06 ( -1.7500000000e+00 -2.5000000000e-01 6.7500000000e+00 ) 3.2753774639e-02 ( -1.2499945888e+00 2.4999537167e-01 1.2498441506e+00 ) 8.5312996480e-04 1.7466177926e-03 
30               1.7409407370e-05 ( 2.2500000000e+00 1.2500000000e+00 6.2500000000e+00 ) 4.7269505763e-02 ( -1.2499945888e+00 2.4999537167e-01 1.2498441506e+00 ) 1.4345989576e-03 2.4849133126e-03 
35               2.6178874061e-05 ( 3.2500000000e+00 7.5000000000e-01 5.7500000000e+00 ) 6.5568895699e-02 ( -1.2499739992e+00 2.4999637060e-01 1.7499205725e+00 ) 2.1350836686e-03 3.3981274772e-03 
40               1.8966688795e-05 ( 3.2500000000e+00 7.5000000000e-01 5.7500000000e+00 ) 8.9930252346e-02 ( -1.2499739992e+00 2.4999637060e-01 1.7499205725e+00 ) 2.9342205365e-03 4.5029103867e-03 
45               4.9740198847e-05 ( 3.2500000000e+00 7.5000000000e-01 5.7500000000e+00 ) 1.1539332994e-01 ( -1.2499739992e+00 -2.4999637060e-01 1.7499205725e+00 ) 3.8290318442e-03 5.7953817946e-03 
50               5.9667506640e-05 ( 3.2500000000e+00 1.2500000000e+00 5.7500000000e+00 ) 1.4264265482e-01 ( -1.2499976486e+00 -2.4999834296e-01 2.2499871784e+00 ) 4.8353031939e-03 7.3034471929e-03 
55               1.1976329420e-04 ( 3.2500000000e+00 1.2500000000e+00 5.7500000000e+00 ) 1.6801525616e-01 ( -1.2499976486e+00 -2.4999834296e-01 2.2499871784e+00 ) 5.9728761364e-03 9.0652651489e-03 
60               1.3357975366e-04 ( 1.2500000000e+00 3.7500000000e+00 5.7500000000e+00 ) 1.9697678439e-01 ( -1.2499993471e+00 -2.4999965255e-01 2.7499952072e+00 ) 7.2554578901e-03 1.1099401980e-02 
65               1.3321739738e-04 ( 7.5000000000e-01 4.2500000000e+00 5.7500000000e+00 ) 2.2769814021e-01 ( -1.2499998877e+00 -2.4999995382e-01 3.2499988351e+00 ) 8.6956731995e-03 1.3429606810e-02 
70               1.8855289104e-04 ( 7.5000000000e-01 4.2500000000e+00 5.7500000000e+00 ) 2.5538097342e-01 ( -1.2500000006e+00 -2.5000000225e-01 3.7499997684e+00 ) 1.0304554524e-02 1.6053622056e-02 
75               2.2107077034e-04 ( 2.2499994023e+00 -2.2499994023e+00 2.7499992760e+00 ) 2.8121479420e-01 ( -1.2500000008e+00 -2.5000000030e-01 4.7499999967e+00 ) 1.2086324750e-02 1.8958996247e-02 
80               1.2881919865e-04 ( 4.2500000000e+00 7.5000000000e-01 5.7500000000e+00 ) 3.0248310562e-01 ( -1.2500000001e+00 -2.5000000001e-01 5.2499999997e+00 ) 1.4043706253e-02 2.2116270552e-02 
85               1.9081963049e-04 ( 4.2500000000e+00 7.5000000000e-01 5.7500000000e+00 ) 3.1785738456e-01 ( -1.2500000000e+00 -2.5000000000e-01 5.7500000000e+00 ) 1.6185863120e-02 2.5496089930e-02 
90               1.6588178290e-04 ( -1.2500000000e+00 -3.7500000000e+00 6.2500000000e+00 ) 3.2912556189e-01 ( -1.2500000000e+00 -2.5000000000e-01 6.7500000000e+00 ) 1.8544165955e-02 2.9075618844e-02 
95               7.0101854755e-05 ( 7.5000000000e-01 2.2500000000e+00 6.7500000000e+00 ) 3.3616479876e-01 ( -1.2500000000e+00 -2.5000000000e-01 7.2500000000e+00 ) 2.1226594324e-02 3.2761753264e-02 
100              2.6540677511e-04 ( -1.2500000000e+00 -4.2500000000e+00 5.7500000000e+00 ) 3.3707756152e-01 ( -1.2500000000e+00 -2.5000000000e-01 7.7500000000e+00 ) 2.4316792857e-02 3.6340636925e-02 
105              2.4752842217e-04 ( 2.5000000000e-01 -4.7500000000e+00 5.7500000000e+00 ) 3.4949427774e-01 ( -7.5000000000e-01 -2.5000000000e-01 6.2500000000e+00 ) 2.7735167991e-02 3.9518824551e-02 
110              2.5986422190e-04 ( -1.2500000000e+00 -4.7500000000e+00 5.7500000000e+00 ) 3.7274304274e-01 ( -7.5000000000e-01 -2.5000000000e-01 6.7500000000e+00 ) 3.1431752887e-02 4.2305135466e-02 
115              4.8443364627e-04 ( 4.7500000000e+00 1.7500000000e+00 6.2500000000e+00 ) 3.9044938132e-01 ( -7.5000000000e-01 -2.5000000000e-01 7.2500000000e+00 ) 3.5498371342e-02 4.4981411070e-02 
120              4.5225448793e-04 ( 4.7500000000e+00 4.7500000000e+00 7.7500000000e+00 ) 4.0180398279e-01 ( -7.5000000000e-01 -2.5000000000e-01 7.7500000000e+00 ) 4.0026691251e-02 4.7725502170e-02 
125              2.7697762037e-04 ( 4.7500000000e+00 4.7500000000e+00 7.7500000000e+00 ) 4.0742258042e-01 ( -7.5000000000e-01 -2.5000000000e-01 8.2500000000e+00 ) 4.5004324052e-02 5.0436659098e-02 
130              4.3157484302e-04 ( -4.7500000000e+00 -4.7500000000e+00 7.2500000000e+00 ) 4.0863069653e-01 ( -7.5000000000e-01 -2.5000000000e-01 9.2500000000e+00 ) 5.0353216492e-02 5.2851764112e-02 
135              7.1549320705e-04 ( 4.7500000000e+00 -4.2500000000e+00 7.7500000000e+00 ) 4.2601308106e-01 ( -2.5000000000e-01 -2.5000000000e-01 9.2500000000e+00 ) 5.5989771122e-02 5.4825935963e-02 
140              6.1699547211e-04 ( 4.7500000000e+00 -4.7500000000e+00 4.2500000000e+00 ) 4.3781264012e-01 ( -2.5000000000e-01 -2.5000000000e-01 9.7500000000e+00 ) 6.1880161413e-02 5.6485978443e-02 
145              7.9078347767e-04 ( 4.7500000000e+00 -4.7500000000e+00 8.2500000000e+00 ) 4.4023054215e-01 ( -2.5000000000e-01 -2.5000000000e-01 9.7500000000e+00 ) 6.8001559107e-02 5.8063714499e-02 
150              1.6807437280e-03 ( -4.7500000000e+00 -4.7500000000e+00 8.2500000000e+00 ) 4.5472210851e-01 ( -1.2500000000e+00 -2.5000000000e-01 6.2500000000e+00 ) 7.4271380958e-02 5.9793937998e-02 
155              1.8119914816e-03 ( -4.7500000000e+00 4.7500000000e+00 5.2500000000e+00 ) 4.6647685517e-01 ( -1.2500000000e+00 -2.5000000000e-01 7.2500000000e+00 ) 8.0500173148e-02 6.1932745252e-02 
160              3.7409452311e-03 ( 4.7500000000e+00 -4.7500000000e+00 9.2500000000e+00 ) 4.6956618915e-01 ( -1.2500000000e+00 -2.5000000000e-01 7.7500000000e+00 ) 8.6438880880e-02 6.4671629260e-02 
165              4.5839458283e-03 ( 4.7500000000e+00 -2.5000000000e-01 5.2500000000e+00 ) 4.7538373512e-01 ( -1.2500000000e+00 -2.5000000000e-01 8.7500000000e+00 ) 9.1711499597e-02 6.7954645426e-02 
170              6.0689867884e-03 ( 1.2500000000e+00 -4.7500000000e+00 9.7500000000e+00 ) 5.0228199337e-01 ( -7.5000000000e-01 2.5000000000e-01 7.7500000000e+00 ) 9.5865808950e-02 7.1143281177e-02 
175              5.5418419849e-03 ( 4.7500000000e+00 2.5000000000e-01 5.7500000000e+00 ) 5.4972186545e-01 ( -7.5000000000e-01 2.5000000000e-01 8.7500000000e+00 ) 9.8573935660e-02 7.3292001742e-02 
180              1.7365933645e-03 ( 4.7500000000e+00 2.5000000000e-01 6.2500000000e+00 ) 5.8131168258e-01 ( -7.5000000000e-01 2.5000000000e-01 9.7500000000e+00 ) 9.9742921889e-02 7.4273893603e-02 
185              5.2207404762e-03 ( -4.7500000000e+00 -4.7500000000e+00 2.7500000000e+00 ) 5.8399107393e-01 ( -7.5000000000e-01 -2.5000000000e-01 9.7500000000e+00 ) 9.9458920594e-02 7.5016604127e-02 
190              4.2973893266e-03 ( -4.7500000000e+00 -4.7500000000e+00 2.7500000000e+00 ) 5.5496689298e-01 ( -7.5000000000e-01 -2.5000000000e-01 9.7500000000e+00 ) 9.7766768735e-02 7.6111181911e-02 
195              3.6306847476e-03 ( -4.7500000000e+00 -4.7500000000e+00 2.7500000000e+00 ) 5.4376327470e-01 ( -2.5000000000e-01 -2.5000000000e-01 9.7500000000e+00 ) 9.4709748610e-02 7.7035880660e-02 
200              3.2577428021e-03 ( -4.7500000000e+00 -4.7500000000e+00 3.2500000000e+00 ) 5.4371863482e-01 ( -2.5000000000e-01 -2.5000000000e-01 9.7500000000e+00 ) 9.0569538862e-02 7.7108854699e-02 
205              2.5726864717e-03 ( -4.7500000000e+00 -4.7500000000e+00 3.2500000000e+00 ) 5.3968215798e-01 ( -2.5000000000e-01 -2.5000000000e-01 9.7500000000e+00 ) 8.5907153286e-02 7.6475723128e-02 
210              2.1155220654e-03 ( -4.7500000000e+00 -4.7500000000e+00 3.2500000000e+00 ) 5.4037739644e-01 ( -2.5000000000e-01 -2.5000000000e-01 9.7500000000e+00 ) 8.1244511597e-02 7.5744357166e-02 
215              1.8872080899e-03 ( -4.7500000000e+00 -4.7500000000e+00 3.2500000000e+00 ) 5.4320777223e-01 ( -2.5000000000e-01 -2.5000000000e-01 9.7500000000e+00 ) 7.6843281742e-02 7.5198914356e-02 
220              1.7256643542e-03 ( -4.7500000000e+00 4.2500000000e+00 3.2500000000e+00 ) 5.4407388670e-01 ( -2.5000000000e-01 -2.5000000000e-01 9.7500000000e+00 ) 7.2767579063e-02 7.4766290930e-02 
225              1.5450461847e-03 ( -4.7500000000e+00 4.2500000000e+00 3.2500000000e+00 ) 5.4387075953e-01 ( -2.5000000000e-01 -2.5000000000e-01 9.7500000000e+00 ) 6.9034117578e-02 7.4334250042e-02 
230              1.4133430622e-03 ( -4.7500000000e+00 -4.7500000000e+00 3.7500000000e+00 ) 5.4581519436e-01 ( -2.5000000000e-01 -2.5000000000e-01 9.7500000000e+00 ) 6.5697516600e-02 7.3908408199e-02 
235              1.3287639993e-03 ( -4.7500000000e+00 4.2500000000e+00 3.7500000000e+00 ) 5.4958946605e-01 ( -2.5000000000e-01 -2.5000000000e-01 9.7500000000e+00 ) 6.2846563031e-02 7.3585234846e-02 
240              1.2250092107e-03 ( -4.7500000000e+00 4.2500000000e+00 3.7500000000e+00 ) 5.5326034827e-01 ( -2.5000000000e-01 -2.5000000000e-01 9.7500000000e+00 ) 6.0551614588e-02 7.3451755685e-02 
245              1.2140806681e-03 ( -4.7500000000e+00 4.2500000000e+00 3.7500000000e+00 ) 5.5483176447e-01 ( -2.5000000000e-01 -2.5000000000e-01 9.7500000000e+00 ) 5.8826955103e-02 7.3528687073e-02 
250              1.2588859883e-03 ( -4.7500000000e+00 4.2500000000e+00 3.7500000000e+00 ) 5.5379326189e-01 ( -2.5000000000e-01 -2.5000000000e-01 9.7500000000e+00 ) 5.7626067028e-02 7.3780057482e-02 
