# Time           	U.airmin         	at location      	U.airmax         	at location      	U.airmean        	U.airstDev       	pmin             	at location      	pmax             	at location      	pmean            	pstDev           	T.airmin         	at location      	T.airmax         	at location      	T.airmean        	T.airstDev       
0.05             2.7609587436e-03 ( 3.0699967500e-01 5.7761903525e-01 7.3000000000e-03 ) 1.4107239104e+00 ( 3.0699967500e-01 7.9903783810e-02 7.3000000000e-03 ) 2.5909878939e-01 1.2944217389e-01 -3.8529508479e-01 ( 6.3478260850e-03 2.8409465620e-01 7.3000000000e-03 ) 1.2568057728e+04 ( 6.3478260850e-03 2.9999350000e-03 7.3000000000e-03 ) 3.8383864033e+02 1.3876043852e+03 3.0000000000e+02 ( 6.3478260850e-03 2.9999350000e-03 7.3000000000e-03 ) 3.0000000000e+02 ( 6.3478260850e-03 2.9999350000e-03 7.3000000000e-03 ) 3.0000000000e+02 2.9558577808e-12 
