# Wall heat-flux 
# Time           	patch            	min              	max              	integral         
1.0000000000e+00	pad1_to_default	4.8444021645e+03	1.4360683871e+04	1.3466491532e+02
1.0000000000e+00	pad1_to_disk	4.5425139336e+04	5.6059817674e+04	7.2473318367e+02
2.0000000000e+00	pad1_to_default	1.5257256299e+04	4.0323755832e+04	3.6983025301e+02
2.0000000000e+00	pad1_to_disk	8.0785494934e+04	1.0162788714e+05	1.3269747259e+03
3.0000000000e+00	pad1_to_default	1.4804762486e+04	3.3745391096e+04	3.5530239503e+02
3.0000000000e+00	pad1_to_disk	6.9749272067e+04	8.8363146992e+04	1.1523330549e+03
4.0000000000e+00	pad1_to_default	1.5676516144e+04	3.3384423992e+04	3.7299704851e+02
4.0000000000e+00	pad1_to_disk	6.7396837081e+04	8.5797009935e+04	1.1185119819e+03
5.0000000000e+00	pad1_to_default	1.6317051031e+04	3.1585074398e+04	3.9016977782e+02
5.0000000000e+00	pad1_to_disk	6.5966447128e+04	8.4936042088e+04	1.1054290622e+03
6.0000000000e+00	pad1_to_default	1.6712540359e+04	3.2218764832e+04	4.0434460387e+02
6.0000000000e+00	pad1_to_disk	6.4464145510e+04	8.4518096482e+04	1.0956048143e+03
7.0000000000e+00	pad1_to_default	1.6655684330e+04	3.2942051571e+04	4.1608739957e+02
7.0000000000e+00	pad1_to_disk	6.2926662062e+04	8.4342974594e+04	1.0867135330e+03
8.0000000000e+00	pad1_to_default	1.6592301521e+04	3.5343011561e+04	4.2599978792e+02
8.0000000000e+00	pad1_to_disk	6.1371546968e+04	8.4269947231e+04	1.0782913964e+03
9.0000000000e+00	pad1_to_default	1.6512339008e+04	3.8434613228e+04	4.3429159818e+02
9.0000000000e+00	pad1_to_disk	5.9163732639e+04	8.4234934313e+04	1.0703823481e+03
1.0000000000e+01	pad1_to_default	1.5820093945e+04	4.1580589923e+04	4.4089642979e+02
1.0000000000e+01	pad1_to_disk	5.6840947096e+04	8.4251475998e+04	1.0631624706e+03
1.1000000000e+01	pad1_to_default	1.4986292668e+04	4.4588793719e+04	4.4742232556e+02
1.1000000000e+01	pad1_to_disk	5.4744268540e+04	8.4248458235e+04	1.0562004087e+03
1.2000000000e+01	pad1_to_default	1.4385913750e+04	4.7258829050e+04	4.5405010369e+02
1.2000000000e+01	pad1_to_disk	5.2800808545e+04	8.4196454905e+04	1.0492920350e+03
1.3000000000e+01	pad1_to_default	1.5221186406e+04	4.9294037728e+04	4.6017553645e+02
1.3000000000e+01	pad1_to_disk	5.1340598554e+04	8.4127250358e+04	1.0428250173e+03
1.4000000000e+01	pad1_to_default	1.4809378046e+04	5.0380132540e+04	4.6720057930e+02
1.4000000000e+01	pad1_to_disk	5.0405695099e+04	8.3784770499e+04	1.0358145341e+03
1.5000000000e+01	pad1_to_default	1.4805361901e+04	5.0509478742e+04	4.7638077999e+02
1.5000000000e+01	pad1_to_disk	4.9920877274e+04	8.3109251732e+04	1.0270669148e+03
1.6000000000e+01	pad1_to_default	1.4390244734e+04	5.0216696293e+04	4.8686995234e+02
1.6000000000e+01	pad1_to_disk	4.9623750938e+04	8.2203265592e+04	1.0169508325e+03
1.7000000000e+01	pad1_to_default	1.4061297057e+04	4.9853900658e+04	4.9589306449e+02
1.7000000000e+01	pad1_to_disk	4.9473027210e+04	8.1672708557e+04	1.0077207695e+03
1.8000000000e+01	pad1_to_default	1.3024235311e+04	4.9887102406e+04	5.0404051753e+02
1.8000000000e+01	pad1_to_disk	4.9404125479e+04	8.1295458138e+04	9.9927587640e+02
1.9000000000e+01	pad1_to_default	1.2494856055e+04	5.0448489980e+04	5.1229306654e+02
1.9000000000e+01	pad1_to_disk	4.9414497969e+04	8.0875931046e+04	9.9094858960e+02
2.0000000000e+01	pad1_to_default	1.2002196264e+04	5.0698073976e+04	5.2049066673e+02
2.0000000000e+01	pad1_to_disk	4.9518929822e+04	8.0528840444e+04	9.8275055850e+02
2.1000000000e+01	pad1_to_default	1.1801947779e+04	5.0481842814e+04	5.2741418507e+02
2.1000000000e+01	pad1_to_disk	4.9674704254e+04	8.0366154886e+04	9.7553510638e+02
2.2000000000e+01	pad1_to_default	1.1916462084e+04	5.0241816647e+04	5.3319810334e+02
2.2000000000e+01	pad1_to_disk	4.9844935862e+04	8.0263572292e+04	9.6933071688e+02
2.3000000000e+01	pad1_to_default	1.1800660166e+04	5.0673752632e+04	5.3785098417e+02
2.3000000000e+01	pad1_to_disk	4.9998205970e+04	8.0182425602e+04	9.6423686968e+02
2.4000000000e+01	pad1_to_default	1.1942166156e+04	5.1638551925e+04	5.4165330104e+02
2.4000000000e+01	pad1_to_disk	5.0144577535e+04	8.0083623243e+04	9.6007919245e+02
2.5000000000e+01	pad1_to_default	1.2234855782e+04	5.2364227203e+04	5.4508037721e+02
2.5000000000e+01	pad1_to_disk	5.0287088105e+04	7.9932164957e+04	9.5640460040e+02
2.6000000000e+01	pad1_to_default	1.2459039008e+04	5.2862200521e+04	5.4790628636e+02
2.6000000000e+01	pad1_to_disk	5.0429286863e+04	7.9763968032e+04	9.5332591666e+02
2.7000000000e+01	pad1_to_default	1.2064647513e+04	5.3161442762e+04	5.5035175367e+02
2.7000000000e+01	pad1_to_disk	5.0561606544e+04	7.9597782373e+04	9.5067315183e+02
2.8000000000e+01	pad1_to_default	1.2475018110e+04	5.3328308423e+04	5.5286013380e+02
2.8000000000e+01	pad1_to_disk	5.0672769060e+04	7.9390867380e+04	9.4809929832e+02
2.9000000000e+01	pad1_to_default	1.2512302668e+04	5.3452366025e+04	5.5563934037e+02
2.9000000000e+01	pad1_to_disk	5.0762017724e+04	7.9090430989e+04	9.4535642023e+02
3.0000000000e+01	pad1_to_default	1.2230719645e+04	5.3566614072e+04	5.5873905871e+02
3.0000000000e+01	pad1_to_disk	5.0829492770e+04	7.8677468119e+04	9.4233976949e+02
3.1000000000e+01	pad1_to_default	1.2668879605e+04	5.3648531394e+04	5.6189475110e+02
3.1000000000e+01	pad1_to_disk	5.0888054818e+04	7.8175123076e+04	9.3924268663e+02
3.2000000000e+01	pad1_to_default	1.2924581522e+04	5.3678824293e+04	5.6489750776e+02
3.2000000000e+01	pad1_to_disk	5.0950090513e+04	7.7602973107e+04	9.3623858118e+02
3.3000000000e+01	pad1_to_default	1.3108741189e+04	5.3649287572e+04	5.6765920405e+02
3.3000000000e+01	pad1_to_disk	5.1022292333e+04	7.7156462222e+04	9.3345074201e+02
3.4000000000e+01	pad1_to_default	1.3129910481e+04	5.3576751314e+04	5.7007285147e+02
3.4000000000e+01	pad1_to_disk	5.1105403648e+04	7.6722170071e+04	9.3096043118e+02
3.5000000000e+01	pad1_to_default	1.3106975357e+04	5.3475073934e+04	5.7213932740e+02
3.5000000000e+01	pad1_to_disk	5.1198448208e+04	7.6303078268e+04	9.2881580000e+02
3.6000000000e+01	pad1_to_default	1.3127414077e+04	5.3348172827e+04	5.7388757957e+02
3.6000000000e+01	pad1_to_disk	5.1299543998e+04	7.5877990025e+04	9.2700464518e+02
3.7000000000e+01	pad1_to_default	1.3310921083e+04	5.3203630331e+04	5.7534606750e+02
3.7000000000e+01	pad1_to_disk	5.1402106209e+04	7.5413324449e+04	9.2548073535e+02
3.8000000000e+01	pad1_to_default	1.3362615300e+04	5.3047221738e+04	5.7658606550e+02
3.8000000000e+01	pad1_to_disk	5.1500664077e+04	7.5130314829e+04	9.2416509168e+02
3.9000000000e+01	pad1_to_default	1.3233896782e+04	5.2882504890e+04	5.7763716115e+02
3.9000000000e+01	pad1_to_disk	5.1592573525e+04	7.4905026942e+04	9.2304807713e+02
4.0000000000e+01	pad1_to_default	1.3182183949e+04	5.2716336442e+04	5.7858454606e+02
4.0000000000e+01	pad1_to_disk	5.1674433187e+04	7.4900020009e+04	9.2206451206e+02
4.1000000000e+01	pad1_to_default	1.3182640357e+04	5.2547725521e+04	5.7940802194e+02
4.1000000000e+01	pad1_to_disk	5.1743749230e+04	7.5395879681e+04	9.2119617827e+02
4.2000000000e+01	pad1_to_default	1.3204048602e+04	5.2382302270e+04	5.8015458427e+02
4.2000000000e+01	pad1_to_disk	5.1799906959e+04	7.5832613968e+04	9.2040491892e+02
4.3000000000e+01	pad1_to_default	1.3210728770e+04	5.2218577511e+04	5.8098152113e+02
4.3000000000e+01	pad1_to_disk	5.1842607869e+04	7.6186273488e+04	9.1956666232e+02
4.4000000000e+01	pad1_to_default	1.3172467115e+04	5.2063372847e+04	5.8178253495e+02
4.4000000000e+01	pad1_to_disk	5.1793138955e+04	7.6453646352e+04	9.1874558170e+02
4.5000000000e+01	pad1_to_default	1.3097354446e+04	5.1917778938e+04	5.8259718705e+02
4.5000000000e+01	pad1_to_disk	5.1691982871e+04	7.6645477400e+04	9.1790947293e+02
4.6000000000e+01	pad1_to_default	1.2971133579e+04	5.1786392199e+04	5.8339781741e+02
4.6000000000e+01	pad1_to_disk	5.1610056770e+04	7.6783929808e+04	9.1708691428e+02
4.7000000000e+01	pad1_to_default	1.2800739429e+04	5.1668027119e+04	5.8416045864e+02
4.7000000000e+01	pad1_to_disk	5.1543498122e+04	7.6872862829e+04	9.1628523305e+02
4.8000000000e+01	pad1_to_default	1.2588513385e+04	5.1568030538e+04	5.8485838400e+02
4.8000000000e+01	pad1_to_disk	5.1493959953e+04	7.6923215744e+04	9.1554047016e+02
4.9000000000e+01	pad1_to_default	1.2367051996e+04	5.1480335405e+04	5.8547705815e+02
4.9000000000e+01	pad1_to_disk	5.1462056444e+04	7.6939219381e+04	9.1487507427e+02
5.0000000000e+01	pad1_to_default	1.2200772204e+04	5.1413363991e+04	5.8599480906e+02
5.0000000000e+01	pad1_to_disk	5.1442908341e+04	7.6932054146e+04	9.1429906188e+02
