# Time       	Tmin         	at location  	Tmax         	at location  	Tmean        	TstDev       	Umin         	at location  	Umax         	at location  	Umean        	UstDev       	pmin         	at location  	pmax         	at location  	pmean        	pstDev       
0.246296     2.980000e+02 ( 1.500000e-01 9.750000e-01 1.950000e+00 ) 1.382760e+03 ( 5.000000e-02 9.250000e-01 1.500000e-01 ) 3.165143e+02 1.235770e+02 2.623483e-04 ( 4.500000e-01 4.750000e-01 1.250000e+00 ) 1.455453e+00 ( 1.500000e-01 9.250000e-01 1.500000e-01 ) 3.062498e-02 1.141761e-01 -2.253810e+01 ( 5.000000e-02 4.750000e-01 1.950000e+00 ) -5.765158e-01 ( 9.500000e-01 8.250000e-01 5.000000e-02 ) -1.154210e+01 6.658255e+00 
