# Time           	Tmin             	at location      	Tmax             	at location      	Tmean            	TstDev           	Umin             	at location      	Umax             	at location      	Umean            	UstDev           	pmin             	at location      	pmax             	at location      	pmean            	pstDev           
150              2.9999629716e+02 ( 5.0230497435e-04 1.6500000000e-03 5.0000000000e-05 ) 2.0319900612e+03 ( 5.4500000000e-03 3.1575601380e-03 5.0000000000e-05 ) 7.5259823588e+02 7.0037636358e+02 1.7547297276e-04 ( 3.0500000000e-03 5.8962449160e-03 5.0000000000e-05 ) 2.1998357376e+00 ( 8.4500000000e-03 3.3808511495e-03 5.0000000000e-05 ) 9.4563691729e-01 5.4328644665e-01 9.9996744351e+04 ( 4.0500000000e-03 2.0500000000e-03 5.0000000000e-05 ) 9.9999994827e+04 ( 1.2950000000e-02 5.3065057090e-03 5.0000000000e-05 ) 9.9998792477e+04 8.9563005382e-01 
