# Time           	rhomin           	at location      	rhomax           	at location      	rhomean          	rhostDev         	Umin             	at location      	Umax             	at location      	Umean            	UstDev           	pmin             	at location      	pmax             	at location      	pmean            	pstDev           
3.2e-05          1.5687516094e+00 ( 8.9300000000e-03 9.8800000000e-03 2.8500000000e-02 ) 1.5760320780e+00 ( 5.3257000000e-01 2.0748000000e-01 2.8500000000e-02 ) 1.5760198839e+00 1.8882510956e-04 3.2501792374e+01 ( 8.9300000000e-03 -1.8772000000e-01 2.8500000000e-02 ) 6.7508878395e+01 ( 8.9300000000e-03 1.8772000000e-01 2.8500000000e-02 ) 5.0005613623e+01 7.4525037375e-01 -6.5447650094e+02 ( 8.9300000000e-03 9.8800000000e-03 2.8500000000e-02 ) 2.1704364576e-01 ( 5.3257000000e-01 2.0748000000e-01 2.8500000000e-02 ) -8.8011339210e-01 1.6985214256e+01 
6.4e-05          1.5687494723e+00 ( 8.9300000000e-03 9.8800000000e-03 2.8500000000e-02 ) 1.5760357817e+00 ( 4.9229000000e-01 2.0748000000e-01 2.8500000000e-02 ) 1.5760198839e+00 1.8881096627e-04 3.2493909603e+01 ( 8.9300000000e-03 -1.8772000000e-01 2.8500000000e-02 ) 6.7512624490e+01 ( 8.9300000000e-03 1.8772000000e-01 2.8500000000e-02 ) 5.0005613405e+01 7.4524602952e-01 -6.5466849983e+02 ( 8.9300000000e-03 9.8800000000e-03 2.8500000000e-02 ) 5.5041056111e-01 ( 4.9229000000e-01 2.0748000000e-01 2.8500000000e-02 ) -8.8011345296e-01 1.6983944716e+01 
9.6e-05          1.5687491852e+00 ( 8.9300000000e-03 9.8800000000e-03 2.8500000000e-02 ) 1.5760400067e+00 ( -4.7443000000e-01 -2.0748000000e-01 2.8500000000e-02 ) 1.5760198839e+00 1.8879246187e-04 3.2487738988e+01 ( 8.9300000000e-03 -1.8772000000e-01 2.8500000000e-02 ) 6.7515638359e+01 ( 8.9300000000e-03 1.8772000000e-01 2.8500000000e-02 ) 5.0005613316e+01 7.4524497137e-01 -6.5469428667e+02 ( 8.9300000000e-03 9.8800000000e-03 2.8500000000e-02 ) 9.3068824787e-01 ( -4.7443000000e-01 -2.0748000000e-01 2.8500000000e-02 ) -8.8011353260e-01 1.6982283944e+01 
0.000128         1.5687507792e+00 ( 8.9300000000e-03 9.8800000000e-03 2.8500000000e-02 ) 1.5760445291e+00 ( -4.7443000000e-01 -1.8772000000e-01 2.8500000000e-02 ) 1.5760198839e+00 1.8876830499e-04 3.2483370581e+01 ( 8.9300000000e-03 -1.8772000000e-01 2.8500000000e-02 ) 6.7517827041e+01 ( 8.9300000000e-03 1.8772000000e-01 2.8500000000e-02 ) 5.0005613268e+01 7.4524519044e-01 -6.5455108542e+02 ( 8.9300000000e-03 9.8800000000e-03 2.8500000000e-02 ) 1.3377477863e+00 ( -4.7443000000e-01 -1.8772000000e-01 2.8500000000e-02 ) -8.8011363657e-01 1.6980115873e+01 
0.00016          1.5687541441e+00 ( 8.9300000000e-03 9.8800000000e-03 2.8500000000e-02 ) 1.5760492312e+00 ( -4.5429000000e-01 -1.8772000000e-01 2.8500000000e-02 ) 1.5760198839e+00 1.8873835992e-04 3.2480837923e+01 ( 8.9300000000e-03 -1.8772000000e-01 2.8500000000e-02 ) 6.7519153850e+01 ( 8.9300000000e-03 1.8772000000e-01 2.8500000000e-02 ) 5.0005613232e+01 7.4524600156e-01 -6.5424877938e+02 ( 8.9300000000e-03 9.8800000000e-03 2.8500000000e-02 ) 1.7609749551e+00 ( -4.5429000000e-01 -1.8772000000e-01 2.8500000000e-02 ) -8.8011376554e-01 1.6977428215e+01 
0.000192         1.5687591039e+00 ( 8.9300000000e-03 9.8800000000e-03 2.8500000000e-02 ) 1.5760540174e+00 ( -4.5429000000e-01 -1.8772000000e-01 2.8500000000e-02 ) 1.5760198839e+00 1.8870293239e-04 3.2480156112e+01 ( 8.9300000000e-03 -1.8772000000e-01 2.8500000000e-02 ) 6.7519599444e+01 ( 8.9300000000e-03 1.8772000000e-01 2.8500000000e-02 ) 5.0005613196e+01 7.4524715756e-01 -6.5380318027e+02 ( 8.9300000000e-03 9.8800000000e-03 2.8500000000e-02 ) 2.1917720112e+00 ( -4.5429000000e-01 -1.8772000000e-01 2.8500000000e-02 ) -8.8011391812e-01 1.6974248312e+01 
0.000224         1.5687654492e+00 ( 8.9300000000e-03 9.8800000000e-03 2.8500000000e-02 ) 1.5760585053e+00 ( -4.5429000000e-01 -1.8772000000e-01 2.8500000000e-02 ) 1.5760198839e+00 1.8866252283e-04 3.2481334410e+01 ( 8.9300000000e-03 -1.8772000000e-01 2.8500000000e-02 ) 6.7519148896e+01 ( 8.9300000000e-03 1.8772000000e-01 2.8500000000e-02 ) 5.0005613160e+01 7.4524855423e-01 -6.5323311222e+02 ( 8.9300000000e-03 9.8800000000e-03 2.8500000000e-02 ) 2.5957197621e+00 ( -4.5429000000e-01 -1.8772000000e-01 2.8500000000e-02 ) -8.8011409218e-01 1.6970620980e+01 
0.000256         1.5687729979e+00 ( 8.9300000000e-03 9.8800000000e-03 2.8500000000e-02 ) 1.5760627625e+00 ( -4.3415000000e-01 -1.8772000000e-01 2.8500000000e-02 ) 1.5760198839e+00 1.8861766924e-04 3.2484380437e+01 ( 8.9300000000e-03 -1.8772000000e-01 2.8500000000e-02 ) 6.7517787845e+01 ( 8.9300000000e-03 1.8772000000e-01 2.8500000000e-02 ) 5.0005613121e+01 7.4525013250e-01 -6.5255492043e+02 ( 8.9300000000e-03 9.8800000000e-03 2.8500000000e-02 ) 2.9788988645e+00 ( -4.3415000000e-01 -1.8772000000e-01 2.8500000000e-02 ) -8.8011428540e-01 1.6966594410e+01 
0.000288         1.5687815772e+00 ( 8.9300000000e-03 9.8800000000e-03 2.8500000000e-02 ) 1.5760669968e+00 ( -4.3415000000e-01 -1.8772000000e-01 2.8500000000e-02 ) 1.5760198839e+00 1.8856896432e-04 3.2489301502e+01 ( 8.9300000000e-03 -1.8772000000e-01 2.8500000000e-02 ) 6.7515501827e+01 ( 8.9300000000e-03 1.8772000000e-01 2.8500000000e-02 ) 5.0005613080e+01 7.4525184702e-01 -6.5178414181e+02 ( 8.9300000000e-03 9.8800000000e-03 2.8500000000e-02 ) 3.3600242902e+00 ( -4.3415000000e-01 -1.8772000000e-01 2.8500000000e-02 ) -8.8011449520e-01 1.6962221705e+01 
0.00032          1.5687910205e+00 ( 8.9300000000e-03 9.8800000000e-03 2.8500000000e-02 ) 1.5760707930e+00 ( -4.3415000000e-01 -1.8772000000e-01 2.8500000000e-02 ) 1.5760198839e+00 1.8851705483e-04 3.2496105017e+01 ( 8.9300000000e-03 -1.8772000000e-01 2.8500000000e-02 ) 6.7512276402e+01 ( 8.9300000000e-03 1.8772000000e-01 2.8500000000e-02 ) 5.0005613036e+01 7.4525365558e-01 -6.5093573690e+02 ( 8.9300000000e-03 9.8800000000e-03 2.8500000000e-02 ) 3.7017180765e+00 ( -4.3415000000e-01 -1.8772000000e-01 2.8500000000e-02 ) -8.8011471881e-01 1.6957560833e+01 
0.000352         1.5688011703e+00 ( 8.9300000000e-03 9.8800000000e-03 2.8500000000e-02 ) 1.5760741321e+00 ( -4.3415000000e-01 -1.8772000000e-01 2.8500000000e-02 ) 1.5760198839e+00 1.8846263441e-04 3.2504798362e+01 ( 8.9300000000e-03 -1.8772000000e-01 2.8500000000e-02 ) 6.7508097391e+01 ( 8.9300000000e-03 1.8772000000e-01 2.8500000000e-02 ) 5.0005612992e+01 7.4525551609e-01 -6.5002385571e+02 ( 8.9300000000e-03 9.8800000000e-03 2.8500000000e-02 ) 4.0022624355e+00 ( -4.3415000000e-01 -1.8772000000e-01 2.8500000000e-02 ) -8.8011495322e-01 1.6952673981e+01 
0.000384         1.5688118830e+00 ( 8.9300000000e-03 9.8800000000e-03 2.8500000000e-02 ) 1.5760769986e+00 ( -4.3415000000e-01 -1.8772000000e-01 2.8500000000e-02 ) 1.5760198839e+00 1.8840643515e-04 3.2514304280e+01 ( 2.9070000000e-02 -1.8772000000e-01 2.8500000000e-02 ) 6.7504800251e+01 ( 2.9070000000e-02 1.8772000000e-01 2.8500000000e-02 ) 5.0005612946e+01 7.4525738616e-01 -6.4906139879e+02 ( 8.9300000000e-03 9.8800000000e-03 2.8500000000e-02 ) 4.2602744238e+00 ( -4.3415000000e-01 -1.8772000000e-01 2.8500000000e-02 ) -8.8011519529e-01 1.6947626806e+01 
0.000416         1.5688147690e+00 ( 2.9070000000e-02 9.8800000000e-03 2.8500000000e-02 ) 1.5760793807e+00 ( -4.3415000000e-01 -1.8772000000e-01 2.8500000000e-02 ) 1.5760198839e+00 1.8834921859e-04 3.2502442986e+01 ( 2.9070000000e-02 -1.8772000000e-01 2.8500000000e-02 ) 6.7510631282e+01 ( 2.9070000000e-02 1.8772000000e-01 2.8500000000e-02 ) 5.0005612900e+01 7.4525922359e-01 -6.4880211334e+02 ( 2.9070000000e-02 9.8800000000e-03 2.8500000000e-02 ) 4.4746888044e+00 ( -4.3415000000e-01 -1.8772000000e-01 2.8500000000e-02 ) -8.8011544172e-01 1.6942487629e+01 
0.000448         1.5688136279e+00 ( 2.9070000000e-02 9.8800000000e-03 2.8500000000e-02 ) 1.5760812700e+00 ( -4.3415000000e-01 -1.8772000000e-01 2.8500000000e-02 ) 1.5760198839e+00 1.8829176586e-04 3.2492499886e+01 ( 2.9070000000e-02 -1.8772000000e-01 2.8500000000e-02 ) 6.7515477464e+01 ( 2.9070000000e-02 1.8772000000e-01 2.8500000000e-02 ) 5.0005612853e+01 7.4526098696e-01 -6.4890463224e+02 ( 2.9070000000e-02 9.8800000000e-03 2.8500000000e-02 ) 4.6447424287e+00 ( -4.3415000000e-01 -1.8772000000e-01 2.8500000000e-02 ) -8.8011568915e-01 1.6937326553e+01 
0.00048          1.5688127394e+00 ( 2.9070000000e-02 9.8800000000e-03 2.8500000000e-02 ) 1.5760826612e+00 ( -4.3415000000e-01 -1.8772000000e-01 2.8500000000e-02 ) 1.5760198839e+00 1.8823486701e-04 3.2484492159e+01 ( 2.9070000000e-02 -1.8772000000e-01 2.8500000000e-02 ) 6.7519326717e+01 ( 2.9070000000e-02 1.8772000000e-01 2.8500000000e-02 ) 5.0005612807e+01 7.4526263642e-01 -6.4898445103e+02 ( 2.9070000000e-02 9.8800000000e-03 2.8500000000e-02 ) 4.7699606218e+00 ( -4.3415000000e-01 -1.8772000000e-01 2.8500000000e-02 ) -8.8011593418e-01 1.6932214508e+01 
0.000512         1.5688120493e+00 ( 2.9070000000e-02 9.8800000000e-03 2.8500000000e-02 ) 1.5760835520e+00 ( -4.3415000000e-01 -1.8772000000e-01 2.8500000000e-02 ) 1.5760198839e+00 1.8817931011e-04 3.2478435280e+01 ( 2.9070000000e-02 -1.8772000000e-01 2.8500000000e-02 ) 6.7522168129e+01 ( 2.9070000000e-02 1.8772000000e-01 2.8500000000e-02 ) 5.0005612762e+01 7.4526413442e-01 -6.4904645382e+02 ( 2.9070000000e-02 9.8800000000e-03 2.8500000000e-02 ) 4.8501458310e+00 ( -4.3415000000e-01 -1.8772000000e-01 2.8500000000e-02 ) -8.8011617340e-01 1.6927222266e+01 
0.000544         1.5688115262e+00 ( 2.9070000000e-02 9.8800000000e-03 2.8500000000e-02 ) 1.5760839434e+00 ( -4.3415000000e-01 -1.8772000000e-01 2.8500000000e-02 ) 1.5760198839e+00 1.8812587284e-04 3.2474342271e+01 ( 2.9070000000e-02 -1.8772000000e-01 2.8500000000e-02 ) 6.7523991848e+01 ( 2.9070000000e-02 1.8772000000e-01 2.8500000000e-02 ) 5.0005612718e+01 7.4526544631e-01 -6.4909344755e+02 ( 2.9070000000e-02 9.8800000000e-03 2.8500000000e-02 ) 4.8853686138e+00 ( -4.3415000000e-01 -1.8772000000e-01 2.8500000000e-02 ) -8.8011640348e-01 1.6922419694e+01 
0.000576         1.5688111527e+00 ( 2.9070000000e-02 9.8800000000e-03 2.8500000000e-02 ) 1.5760838389e+00 ( -4.3415000000e-01 -1.8772000000e-01 2.8500000000e-02 ) 1.5760198839e+00 1.8807533052e-04 3.2472223268e+01 ( 2.9070000000e-02 -1.8772000000e-01 2.8500000000e-02 ) 6.7524789222e+01 ( 2.9070000000e-02 1.8772000000e-01 2.8500000000e-02 ) 5.0005612675e+01 7.4526654096e-01 -6.4912700403e+02 ( 2.9070000000e-02 9.8800000000e-03 2.8500000000e-02 ) 4.8759608790e+00 ( -4.3415000000e-01 -1.8772000000e-01 2.8500000000e-02 ) -8.8011662108e-01 1.6917876464e+01 
0.000608         1.5688107092e+00 ( 2.9070000000e-02 9.8800000000e-03 2.8500000000e-02 ) 1.5760832450e+00 ( -4.3415000000e-01 -1.8772000000e-01 2.8500000000e-02 ) 1.5760198839e+00 1.8802879406e-04 3.2472084524e+01 ( 2.9070000000e-02 -1.8772000000e-01 2.8500000000e-02 ) 6.7524551982e+01 ( 2.9070000000e-02 1.8772000000e-01 2.8500000000e-02 ) 5.0005612633e+01 7.4526739104e-01 -6.4916685234e+02 ( 2.9070000000e-02 9.8800000000e-03 2.8500000000e-02 ) 4.8225111642e+00 ( -4.3415000000e-01 -1.8772000000e-01 2.8500000000e-02 ) -8.8011682142e-01 1.6913692368e+01 
0.00064          1.5688103776e+00 ( 2.9070000000e-02 9.8800000000e-03 2.8500000000e-02 ) 1.5760825669e+00 ( -4.5429000000e-01 -1.8772000000e-01 2.8500000000e-02 ) 1.5760198839e+00 1.8798673608e-04 3.2473929139e+01 ( 2.9070000000e-02 -1.8772000000e-01 2.8500000000e-02 ) 6.7523273377e+01 ( 2.9070000000e-02 1.8772000000e-01 2.8500000000e-02 ) 5.0005612594e+01 7.4526797065e-01 -6.4919664424e+02 ( 2.9070000000e-02 9.8800000000e-03 2.8500000000e-02 ) 4.7614780788e+00 ( -4.5429000000e-01 -1.8772000000e-01 2.8500000000e-02 ) -8.8011700247e-01 1.6909909949e+01 
0.000672         1.5688104473e+00 ( 2.9070000000e-02 9.8800000000e-03 2.8500000000e-02 ) 1.5760815409e+00 ( -4.5429000000e-01 -1.8772000000e-01 2.8500000000e-02 ) 1.5760198839e+00 1.8794946055e-04 3.2477758843e+01 ( 2.9070000000e-02 -1.8772000000e-01 2.8500000000e-02 ) 6.7520950836e+01 ( 2.9070000000e-02 1.8772000000e-01 2.8500000000e-02 ) 5.0005612557e+01 7.4526826284e-01 -6.4919037841e+02 ( 2.9070000000e-02 9.8800000000e-03 2.8500000000e-02 ) 4.6691277736e+00 ( -4.5429000000e-01 -1.8772000000e-01 2.8500000000e-02 ) -8.8011716292e-01 1.6906556635e+01 
0.000704         1.5688111015e+00 ( 2.9070000000e-02 -9.8800000000e-03 2.8500000000e-02 ) 1.5760801300e+00 ( -4.5429000000e-01 -2.0748000000e-01 2.8500000000e-02 ) 1.5760198839e+00 1.8791724031e-04 3.2483575444e+01 ( 2.9070000000e-02 -1.8772000000e-01 2.8500000000e-02 ) 6.7517587665e+01 ( 2.9070000000e-02 1.8772000000e-01 2.8500000000e-02 ) 5.0005612523e+01 7.4526825628e-01 -6.4913160799e+02 ( 2.9070000000e-02 -9.8800000000e-03 2.8500000000e-02 ) 4.5421279021e+00 ( -4.5429000000e-01 -2.0748000000e-01 2.8500000000e-02 ) -8.8011730161e-01 1.6903657054e+01 
0.000736         1.5688125341e+00 ( 2.9070000000e-02 -9.8800000000e-03 2.8500000000e-02 ) 1.5760785250e+00 ( -4.5429000000e-01 -2.0748000000e-01 2.8500000000e-02 ) 1.5760198839e+00 1.8789030980e-04 3.2491380612e+01 ( 2.9070000000e-02 -1.8772000000e-01 2.8500000000e-02 ) 6.7513192571e+01 ( 2.9070000000e-02 1.8772000000e-01 2.8500000000e-02 ) 5.0005612491e+01 7.4526794435e-01 -6.4900290232e+02 ( 2.9070000000e-02 -9.8800000000e-03 2.8500000000e-02 ) 4.3976651708e+00 ( -4.5429000000e-01 -2.0748000000e-01 2.8500000000e-02 ) -8.8011741754e-01 1.6901232390e+01 
0.000768         1.5688148464e+00 ( 2.9070000000e-02 -9.8800000000e-03 2.8500000000e-02 ) 1.5760770568e+00 ( -4.7443000000e-01 -2.0748000000e-01 2.8500000000e-02 ) 1.5760198839e+00 1.8786883781e-04 3.2501174264e+01 ( 2.9070000000e-02 -1.8772000000e-01 2.8500000000e-02 ) 6.7507777308e+01 ( 2.9070000000e-02 1.8772000000e-01 2.8500000000e-02 ) 5.0005612462e+01 7.4526732500e-01 -6.4879515148e+02 ( 2.9070000000e-02 -9.8800000000e-03 2.8500000000e-02 ) 4.2655144175e+00 ( -4.7443000000e-01 -2.0748000000e-01 2.8500000000e-02 ) -8.8011750997e-01 1.6899297926e+01 
0.0008           1.5688177017e+00 ( 4.9210000000e-02 -9.8800000000e-03 2.8500000000e-02 ) 1.5760753286e+00 ( -4.7443000000e-01 -2.0748000000e-01 2.8500000000e-02 ) 1.5760198839e+00 1.8785290937e-04 3.2505289134e+01 ( 4.9210000000e-02 -1.8772000000e-01 2.8500000000e-02 ) 6.7509089715e+01 ( 4.9210000000e-02 1.8772000000e-01 2.8500000000e-02 ) 5.0005612436e+01 7.4526640078e-01 -6.4853862365e+02 ( 4.9210000000e-02 -9.8800000000e-03 2.8500000000e-02 ) 4.1099625605e+00 ( -4.7443000000e-01 -2.0748000000e-01 2.8500000000e-02 ) -8.8011757854e-01 1.6897861414e+01 
0.000832         1.5688083302e+00 ( 4.9210000000e-02 -9.8800000000e-03 2.8500000000e-02 ) 1.5760735588e+00 ( -4.9457000000e-01 -2.0748000000e-01 2.8500000000e-02 ) 1.5760198839e+00 1.8784251896e-04 3.2494641107e+01 ( 4.9210000000e-02 -1.8772000000e-01 2.8500000000e-02 ) 6.7513585608e+01 ( 4.9210000000e-02 1.8772000000e-01 2.8500000000e-02 ) 5.0005612412e+01 7.4526517870e-01 -6.4938059258e+02 ( 4.9210000000e-02 -9.8800000000e-03 2.8500000000e-02 ) 3.9506621147e+00 ( -4.9457000000e-01 -2.0748000000e-01 2.8500000000e-02 ) -8.8011762330e-01 1.6896922472e+01 
0.000864         1.5688001103e+00 ( 4.9210000000e-02 -9.8800000000e-03 2.8500000000e-02 ) 1.5760718133e+00 ( -4.9457000000e-01 -2.0748000000e-01 2.8500000000e-02 ) 1.5760198839e+00 1.8783757212e-04 3.2485954114e+01 ( 4.9210000000e-02 -1.8772000000e-01 2.8500000000e-02 ) 6.7517067282e+01 ( 4.9210000000e-02 1.8772000000e-01 2.8500000000e-02 ) 5.0005612391e+01 7.4526366988e-01 -6.5011908925e+02 ( 4.9210000000e-02 -9.8800000000e-03 2.8500000000e-02 ) 3.7935559394e+00 ( -4.9457000000e-01 -2.0748000000e-01 2.8500000000e-02 ) -8.8011764463e-01 1.6896472714e+01 
0.000896         1.5687930097e+00 ( 4.9210000000e-02 -9.8800000000e-03 2.8500000000e-02 ) 1.5760701312e+00 ( -5.1471000000e-01 -2.2724000000e-01 2.8500000000e-02 ) 1.5760198839e+00 1.8783789313e-04 3.2479242959e+01 ( 4.9210000000e-02 -1.8772000000e-01 2.8500000000e-02 ) 6.7519554958e+01 ( 4.9210000000e-02 1.8772000000e-01 2.8500000000e-02 ) 5.0005612372e+01 7.4526188918e-01 -6.5075701895e+02 ( 4.9210000000e-02 -9.8800000000e-03 2.8500000000e-02 ) 3.6421484224e+00 ( -5.1471000000e-01 -2.2724000000e-01 2.8500000000e-02 ) -8.8011764331e-01 1.6896496446e+01 
0.000928         1.5687869646e+00 ( 4.9210000000e-02 -9.8800000000e-03 2.8500000000e-02 ) 1.5760686297e+00 ( -5.1471000000e-01 -2.2724000000e-01 2.8500000000e-02 ) 1.5760198839e+00 1.8784323958e-04 3.2474513503e+01 ( 4.9210000000e-02 -1.8772000000e-01 2.8500000000e-02 ) 6.7521063456e+01 ( 4.9210000000e-02 1.8772000000e-01 2.8500000000e-02 ) 5.0005612356e+01 7.4525985466e-01 -6.5130012265e+02 ( 4.9210000000e-02 -9.8800000000e-03 2.8500000000e-02 ) 3.5070055656e+00 ( -5.1471000000e-01 -2.2724000000e-01 2.8500000000e-02 ) -8.8011762037e-01 1.6896971968e+01 
0.00096          1.5687819282e+00 ( 4.9210000000e-02 -9.8800000000e-03 2.8500000000e-02 ) 1.5760671097e+00 ( -5.3485000000e-01 -2.2724000000e-01 2.8500000000e-02 ) 1.5760198839e+00 1.8785333035e-04 3.2471762112e+01 ( 4.9210000000e-02 -1.8772000000e-01 2.8500000000e-02 ) 6.7521601514e+01 ( 4.9210000000e-02 1.8772000000e-01 2.8500000000e-02 ) 5.0005612342e+01 7.4525758704e-01 -6.5175260554e+02 ( 4.9210000000e-02 -9.8800000000e-03 2.8500000000e-02 ) 3.3701855255e+00 ( -5.3485000000e-01 -2.2724000000e-01 2.8500000000e-02 ) -8.8011757703e-01 1.6897874085e+01 
0.000992         1.5687778439e+00 ( 4.9210000000e-02 -9.8800000000e-03 2.8500000000e-02 ) 1.5760656568e+00 ( -5.3485000000e-01 -2.2724000000e-01 2.8500000000e-02 ) 1.5760198839e+00 1.8786794139e-04 3.2470978273e+01 ( 4.9210000000e-02 -1.8772000000e-01 2.8500000000e-02 ) 6.7521173508e+01 ( 4.9210000000e-02 1.8772000000e-01 2.8500000000e-02 ) 5.0005612330e+01 7.4525510898e-01 -6.5211954895e+02 ( 4.9210000000e-02 -9.8800000000e-03 2.8500000000e-02 ) 3.2394168471e+00 ( -5.3485000000e-01 -2.2724000000e-01 2.8500000000e-02 ) -8.8011751424e-01 1.6899182701e+01 
0.001024         1.5687737118e+00 ( 4.9210000000e-02 -9.8800000000e-03 2.8500000000e-02 ) 1.5760643657e+00 ( -5.5499000000e-01 -2.4700000000e-01 2.8500000000e-02 ) 1.5760198839e+00 1.8788819966e-04 3.2472145468e+01 ( 4.9210000000e-02 -1.8772000000e-01 2.8500000000e-02 ) 6.7519777002e+01 ( 4.9210000000e-02 1.8772000000e-01 2.8500000000e-02 ) 5.0005612320e+01 7.4525244383e-01 -6.5249078433e+02 ( 4.9210000000e-02 -9.8800000000e-03 2.8500000000e-02 ) 3.1232080622e+00 ( -5.5499000000e-01 -2.4700000000e-01 2.8500000000e-02 ) -8.8011742718e-01 1.6900998881e+01 
0.001056         1.5687703235e+00 ( 4.9210000000e-02 -9.8800000000e-03 2.8500000000e-02 ) 1.5760631630e+00 ( -5.5499000000e-01 -2.4700000000e-01 2.8500000000e-02 ) 1.5760198839e+00 1.8791289896e-04 3.2475246436e+01 ( 4.9210000000e-02 -1.8772000000e-01 2.8500000000e-02 ) 6.7517408715e+01 ( 4.9210000000e-02 1.8772000000e-01 2.8500000000e-02 ) 5.0005612311e+01 7.4524960517e-01 -6.5279519037e+02 ( 4.9210000000e-02 -9.8800000000e-03 2.8500000000e-02 ) 3.0149538486e+00 ( -5.5499000000e-01 -2.4700000000e-01 2.8500000000e-02 ) -8.8011732100e-01 1.6903214402e+01 
0.001088         1.5687685147e+00 ( 4.9210000000e-02 -9.8800000000e-03 2.8500000000e-02 ) 1.5760620402e+00 ( -5.7513000000e-01 -2.4700000000e-01 2.8500000000e-02 ) 1.5760198839e+00 1.8794081999e-04 3.2480269839e+01 ( 4.9210000000e-02 -1.8772000000e-01 2.8500000000e-02 ) 6.7514074123e+01 ( 4.9210000000e-02 1.8772000000e-01 2.8500000000e-02 ) 5.0005612304e+01 7.4524662424e-01 -6.5295769729e+02 ( 4.9210000000e-02 -9.8800000000e-03 2.8500000000e-02 ) 2.9138888604e+00 ( -5.7513000000e-01 -2.4700000000e-01 2.8500000000e-02 ) -8.8011720094e-01 1.6905719847e+01 
0.00112          1.5687687645e+00 ( 4.9210000000e-02 -9.8800000000e-03 2.8500000000e-02 ) 1.5760608985e+00 ( -5.7513000000e-01 -2.6676000000e-01 2.8500000000e-02 ) 1.5760198839e+00 1.8797102906e-04 3.2487213397e+01 ( 4.9210000000e-02 -1.8772000000e-01 2.8500000000e-02 ) 6.7509791096e+01 ( 4.9210000000e-02 1.8772000000e-01 2.8500000000e-02 ) 5.0005612299e+01 7.4524353225e-01 -6.5293525834e+02 ( 4.9210000000e-02 -9.8800000000e-03 2.8500000000e-02 ) 2.8111286583e+00 ( -5.7513000000e-01 -2.6676000000e-01 2.8500000000e-02 ) -8.8011707103e-01 1.6908431411e+01 
0.001152         1.5687711344e+00 ( 4.9210000000e-02 -9.8800000000e-03 2.8500000000e-02 ) 1.5760599455e+00 ( -5.9527000000e-01 -2.6676000000e-01 2.8500000000e-02 ) 1.5760198839e+00 1.8800280330e-04 3.2496080993e+01 ( 4.9210000000e-02 -1.8772000000e-01 2.8500000000e-02 ) 6.7504585471e+01 ( 4.9210000000e-02 1.8772000000e-01 2.8500000000e-02 ) 5.0005612294e+01 7.4524035790e-01 -6.5272234294e+02 ( 4.9210000000e-02 -9.8800000000e-03 2.8500000000e-02 ) 2.7253493702e+00 ( -5.9527000000e-01 -2.6676000000e-01 2.8500000000e-02 ) -8.8011693438e-01 1.6911284185e+01 
0.001184         1.5687753530e+00 ( 4.9210000000e-02 -9.8800000000e-03 2.8500000000e-02 ) 1.5760590196e+00 ( -5.9527000000e-01 -2.6676000000e-01 2.8500000000e-02 ) 1.5760198839e+00 1.8803554471e-04 3.2506876223e+01 ( 4.9210000000e-02 -1.8772000000e-01 2.8500000000e-02 ) 6.7499874020e+01 ( 6.9350000000e-02 1.8772000000e-01 2.8500000000e-02 ) 5.0005612290e+01 7.4523712767e-01 -6.5234333155e+02 ( 4.9210000000e-02 -9.8800000000e-03 2.8500000000e-02 ) 2.6420132052e+00 ( -5.9527000000e-01 -2.6676000000e-01 2.8500000000e-02 ) -8.8011679355e-01 1.6914224450e+01 
0.001216         1.5687728946e+00 ( 6.9350000000e-02 -9.8800000000e-03 2.8500000000e-02 ) 1.5760581675e+00 ( -6.1541000000e-01 -2.6676000000e-01 2.8500000000e-02 ) 1.5760198839e+00 1.8806873583e-04 3.2504769056e+01 ( 6.9350000000e-02 -1.8772000000e-01 2.8500000000e-02 ) 6.7504749212e+01 ( 6.9350000000e-02 1.8772000000e-01 2.8500000000e-02 ) 5.0005612286e+01 7.4523386606e-01 -6.5256419825e+02 ( 6.9350000000e-02 -9.8800000000e-03 2.8500000000e-02 ) 2.5653114134e+00 ( -6.1541000000e-01 -2.6676000000e-01 2.8500000000e-02 ) -8.8011665077e-01 1.6917205703e+01 
0.001248         1.5687665410e+00 ( 6.9350000000e-02 -9.8800000000e-03 2.8500000000e-02 ) 1.5760572893e+00 ( -6.1541000000e-01 -2.8652000000e-01 2.8500000000e-02 ) 1.5760198839e+00 1.8810192502e-04 3.2494892424e+01 ( 6.9350000000e-02 -1.8772000000e-01 2.8500000000e-02 ) 6.7508671877e+01 ( 6.9350000000e-02 1.8772000000e-01 2.8500000000e-02 ) 5.0005612283e+01 7.4523059566e-01 -6.5313502330e+02 ( 6.9350000000e-02 -9.8800000000e-03 2.8500000000e-02 ) 2.4862656927e+00 ( -6.1541000000e-01 -2.8652000000e-01 2.8500000000e-02 ) -8.8011650798e-01 1.6920187341e+01 
0.00128          1.5687620315e+00 ( 6.9350000000e-02 -9.8800000000e-03 2.8500000000e-02 ) 1.5760565255e+00 ( -6.3555000000e-01 -2.6676000000e-01 2.8500000000e-02 ) 1.5760198839e+00 1.8813472338e-04 3.2486907781e+01 ( 6.9350000000e-02 -1.8772000000e-01 2.8500000000e-02 ) 6.7511688793e+01 ( 6.9350000000e-02 1.8772000000e-01 2.8500000000e-02 ) 5.0005612280e+01 7.4522733705e-01 -6.5354016346e+02 ( 6.9350000000e-02 -9.8800000000e-03 2.8500000000e-02 ) 2.4175171379e+00 ( -6.3555000000e-01 -2.6676000000e-01 2.8500000000e-02 ) -8.8011636686e-01 1.6923134383e+01 
0.001312         1.5687588722e+00 ( 6.9350000000e-02 -9.8800000000e-03 2.8500000000e-02 ) 1.5760572107e+00 ( -4.1401000000e-01 2.0748000000e-01 2.8500000000e-02 ) 1.5760198839e+00 1.8816680688e-04 3.2480855613e+01 ( 6.9350000000e-02 -1.8772000000e-01 2.8500000000e-02 ) 6.7513829616e+01 ( 6.9350000000e-02 1.8772000000e-01 2.8500000000e-02 ) 5.0005612277e+01 7.4522410859e-01 -6.5382400021e+02 ( 6.9350000000e-02 -9.8800000000e-03 2.8500000000e-02 ) 2.4791905185e+00 ( -4.1401000000e-01 2.0748000000e-01 2.8500000000e-02 ) -8.8011622881e-01 1.6926017668e+01 
0.001344         1.5687566162e+00 ( 6.9350000000e-02 -9.8800000000e-03 2.8500000000e-02 ) 1.5760592742e+00 ( -4.1401000000e-01 2.0748000000e-01 2.8500000000e-02 ) 1.5760198839e+00 1.8819792713e-04 3.2476752747e+01 ( 6.9350000000e-02 -1.8772000000e-01 2.8500000000e-02 ) 6.7515099564e+01 ( 6.9350000000e-02 1.8772000000e-01 2.8500000000e-02 ) 5.0005612274e+01 7.4522092630e-01 -6.5402667878e+02 ( 6.9350000000e-02 -9.8800000000e-03 2.8500000000e-02 ) 2.6649248945e+00 ( -4.1401000000e-01 2.0748000000e-01 2.8500000000e-02 ) -8.8011609488e-01 1.6928814816e+01 
0.001376         1.5687550136e+00 ( 6.9350000000e-02 -9.8800000000e-03 2.8500000000e-02 ) 1.5760609138e+00 ( -4.1401000000e-01 2.0748000000e-01 2.8500000000e-02 ) 1.5760198839e+00 1.8822794807e-04 3.2474592880e+01 ( 6.9350000000e-02 -1.8772000000e-01 2.8500000000e-02 ) 6.7515483991e+01 ( 6.9350000000e-02 1.8772000000e-01 2.8500000000e-02 ) 5.0005612270e+01 7.4521780364e-01 -6.5417065892e+02 ( 6.9350000000e-02 -9.8800000000e-03 2.8500000000e-02 ) 2.8125051855e+00 ( -4.1401000000e-01 2.0748000000e-01 2.8500000000e-02 ) -8.8011596567e-01 1.6931513532e+01 
0.001408         1.5687538369e+00 ( 6.9350000000e-02 -9.8800000000e-03 2.8500000000e-02 ) 1.5760623226e+00 ( -4.1401000000e-01 2.2724000000e-01 2.8500000000e-02 ) 1.5760198839e+00 1.8825712175e-04 3.2474355591e+01 ( 6.9350000000e-02 -1.8772000000e-01 2.8500000000e-02 ) 6.7514958951e+01 ( 6.9350000000e-02 1.8772000000e-01 2.8500000000e-02 ) 5.0005612265e+01 7.4521475126e-01 -6.5427637575e+02 ( 6.9350000000e-02 -9.8800000000e-03 2.8500000000e-02 ) 2.9393098417e+00 ( -4.1401000000e-01 2.2724000000e-01 2.8500000000e-02 ) -8.8011584010e-01 1.6934136333e+01 
0.00144          1.5687532412e+00 ( 6.9350000000e-02 -9.8800000000e-03 2.8500000000e-02 ) 1.5760634898e+00 ( -4.3415000000e-01 2.0748000000e-01 2.8500000000e-02 ) 1.5760198839e+00 1.8828543621e-04 3.2476018891e+01 ( 6.9350000000e-02 -1.8772000000e-01 2.8500000000e-02 ) 6.7513502716e+01 ( 6.9350000000e-02 1.8772000000e-01 2.8500000000e-02 ) 5.0005612260e+01 7.4521177474e-01 -6.5432989451e+02 ( 6.9350000000e-02 -9.8800000000e-03 2.8500000000e-02 ) 3.0443675962e+00 ( -4.3415000000e-01 2.0748000000e-01 2.8500000000e-02 ) -8.8011571820e-01 1.6936682068e+01 
0.001472         1.5687538425e+00 ( 6.9350000000e-02 -9.8800000000e-03 2.8500000000e-02 ) 1.5760646619e+00 ( -4.3415000000e-01 2.2724000000e-01 2.8500000000e-02 ) 1.5760198839e+00 1.8831242901e-04 3.2479570155e+01 ( 6.9350000000e-02 -1.8772000000e-01 2.8500000000e-02 ) 6.7511104947e+01 ( 6.9350000000e-02 1.8772000000e-01 2.8500000000e-02 ) 5.0005612254e+01 7.4520887951e-01 -6.5427587637e+02 ( 6.9350000000e-02 -9.8800000000e-03 2.8500000000e-02 ) 3.1498613140e+00 ( -4.3415000000e-01 2.2724000000e-01 2.8500000000e-02 ) -8.8011560198e-01 1.6939109182e+01 
0.001504         1.5687560714e+00 ( 6.9350000000e-02 -9.8800000000e-03 2.8500000000e-02 ) 1.5760654406e+00 ( -4.3415000000e-01 2.2724000000e-01 2.8500000000e-02 ) 1.5760198839e+00 1.8833771296e-04 3.2485010444e+01 ( 6.9350000000e-02 -1.8772000000e-01 2.8500000000e-02 ) 6.7507769319e+01 ( 6.9350000000e-02 1.8772000000e-01 2.8500000000e-02 ) 5.0005612247e+01 7.4520607241e-01 -6.5407562526e+02 ( 6.9350000000e-02 -9.8800000000e-03 2.8500000000e-02 ) 3.2199514378e+00 ( -4.3415000000e-01 2.2724000000e-01 2.8500000000e-02 ) -8.8011549310e-01 1.6941382879e+01 
0.001536         1.5687599834e+00 ( 6.9350000000e-02 -9.8800000000e-03 2.8500000000e-02 ) 1.5760659648e+00 ( -4.5429000000e-01 2.2724000000e-01 2.8500000000e-02 ) 1.5760198839e+00 1.8836105593e-04 3.2492351055e+01 ( 6.9350000000e-02 -1.8772000000e-01 2.8500000000e-02 ) 6.7503508788e+01 ( 6.9350000000e-02 1.8772000000e-01 2.8500000000e-02 ) 5.0005612239e+01 7.4520335810e-01 -6.5372416917e+02 ( 6.9350000000e-02 -9.8800000000e-03 2.8500000000e-02 ) 3.2671341759e+00 ( -4.5429000000e-01 2.2724000000e-01 2.8500000000e-02 ) -8.8011539257e-01 1.6943482282e+01 
0.001568         1.5687653259e+00 ( 6.9350000000e-02 -9.8800000000e-03 2.8500000000e-02 ) 1.5760664991e+00 ( -4.5429000000e-01 2.2724000000e-01 2.8500000000e-02 ) 1.5760198839e+00 1.8838234685e-04 3.2501605231e+01 ( 6.9350000000e-02 -1.8772000000e-01 2.8500000000e-02 ) 6.7498337057e+01 ( 6.9350000000e-02 1.8772000000e-01 2.8500000000e-02 ) 5.0005612230e+01 7.4520073864e-01 -6.5324418613e+02 ( 6.9350000000e-02 -9.8800000000e-03 2.8500000000e-02 ) 3.3152325256e+00 ( -4.5429000000e-01 2.2724000000e-01 2.8500000000e-02 ) -8.8011530087e-01 1.6945397380e+01 
0.0016           1.5687717367e+00 ( 6.9350000000e-02 -9.8800000000e-03 2.8500000000e-02 ) 1.5760667884e+00 ( -4.5429000000e-01 2.4700000000e-01 2.8500000000e-02 ) 1.5760198839e+00 1.8840155712e-04 3.2512780107e+01 ( 6.9350000000e-02 -1.8772000000e-01 2.8500000000e-02 ) 6.7498071451e+01 ( 8.9490000000e-02 1.8772000000e-01 2.8500000000e-02 ) 5.0005612221e+01 7.4519821396e-01 -6.5266822919e+02 ( 6.9350000000e-02 -9.8800000000e-03 2.8500000000e-02 ) 3.3412685286e+00 ( -4.5429000000e-01 2.4700000000e-01 2.8500000000e-02 ) -8.8011521812e-01 1.6947125568e+01 
