# FfowcsWilliamsHawkings Acoustic Analogy
# Time       	points1      	Size         3
1.000000e-03	       points1    1.205158e+00  -3.735137e+00  -3.542053e+00  
2.000000e-03	       points1    1.045630e-01  3.745523e-01  2.390079e-01  
3.000000e-03	       points1    3.004372e-01  1.392643e+00  1.353469e+00  
4.000000e-03	       points1    3.645240e-01  -8.241641e-01  -8.565374e-01  
5.000000e-03	       points1    3.887366e-01  7.311014e-02  3.265064e-02  
6.000000e-03	       points1    4.024916e-01  -1.675056e-01  -1.993716e-01  
7.000000e-03	       points1    4.270082e-01  -2.681067e-01  -2.940721e-01  
8.000000e-03	       points1    4.504019e-01  -3.666369e-01  -3.874715e-01  
9.000000e-03	       points1    4.706894e-01  -4.386753e-01  -4.563758e-01  
