# Time       	Umin         	at location  	Umax         	at location  	Umean        	UstDev       	pmin         	at location  	pmax         	at location  	pmean        	pstDev       	Cparticulatemin	at location  	Cparticulatemax	at location  	Cparticulatemean	CparticulatestDev
1            3.021553e-08 ( -1.562500e-01 -3.125000e-02 3.125000e-02 ) 5.889266e-02 ( -4.027990e+00 6.365069e-01 -1.916578e-01 ) 5.010731e-05 6.263792e-04 -3.479975e-01 ( 3.996653e+00 -6.049766e-01 -1.211065e-01 ) 3.440489e-01 ( 3.987348e+00 -7.389593e-01 -1.914097e-01 ) 1.072519e-03 5.079205e-03 5.509134e-01 ( 4.968750e+00 1.468750e+00 1.468750e+00 ) 1.452604e+00 ( 4.968750e+00 1.468750e+00 -1.468750e+00 ) 9.996059e-01 4.621102e-02 
2            3.582562e-07 ( -2.187500e-01 -3.125000e-02 3.125000e-02 ) 1.471807e+00 ( 4.051657e+00 -9.026100e-01 1.842734e-01 ) 5.937170e-04 8.872961e-03 -5.691388e-01 ( 3.994688e+00 -5.911138e-01 -8.203095e-02 ) 5.588904e-01 ( 4.059980e+00 -9.478913e-01 3.910630e-03 ) 1.245375e-03 1.388226e-02 2.542930e-01 ( -4.968750e+00 -1.468750e+00 1.468750e+00 ) 2.030010e+00 ( -4.968750e+00 1.468750e+00 -1.468750e+00 ) 1.000207e+00 8.331307e-02 
3            5.121495e-07 ( -2.187500e-01 -9.375000e-02 9.375000e-02 ) 1.332265e+00 ( 3.957388e+00 -6.437268e-01 -1.998678e-01 ) 2.151420e-03 2.035595e-02 -5.113957e-01 ( 3.980394e+00 -5.738268e-01 1.214125e-01 ) 4.409540e-01 ( -3.995680e+00 7.460934e-01 -1.992165e-01 ) 1.642312e-03 1.358184e-02 1.156196e-01 ( 4.968750e+00 1.468750e+00 1.468750e+00 ) 2.703220e+00 ( -4.968750e+00 1.468750e+00 -1.468750e+00 ) 1.001396e+00 1.129704e-01 
4            1.994819e-06 ( -2.187500e-01 -1.562500e-01 9.375000e-02 ) 1.215183e+00 ( 3.957388e+00 -6.437268e-01 -1.998678e-01 ) 3.759322e-03 2.682471e-02 -7.519188e-01 ( 4.091006e+00 -9.112398e-01 -1.769655e-01 ) 2.086122e-01 ( 4.058078e+00 -9.339093e-01 1.169610e-02 ) 1.335512e-03 9.996251e-03 5.211727e-02 ( -4.968750e+00 -1.468750e+00 1.468750e+00 ) 3.453906e+00 ( -4.968750e+00 1.468750e+00 -1.468750e+00 ) 1.002841e+00 1.395938e-01 
5            2.223979e-06 ( -2.187500e-01 -1.562500e-01 9.375000e-02 ) 1.184603e+00 ( 3.974203e+00 -6.901611e-01 1.992690e-01 ) 4.718984e-03 2.931151e-02 -8.925189e-01 ( -4.019898e+00 5.739685e-01 1.682572e-01 ) 6.276232e-02 ( 4.065755e+00 -9.342840e-01 1.171895e-02 ) 8.093909e-04 9.645075e-03 2.377714e-02 ( -4.968750e+00 -1.468750e+00 1.468750e+00 ) 4.253881e+00 ( -4.968750e+00 1.468750e+00 -1.468750e+00 ) 1.004444e+00 1.652215e-01 
6            3.569982e-06 ( -2.187500e-01 -9.375000e-02 9.375000e-02 ) 1.292214e+00 ( 3.973464e+00 -6.831255e-01 1.992879e-01 ) 5.058617e-03 3.049489e-02 -8.312675e-01 ( -4.019898e+00 5.739685e-01 1.682572e-01 ) 2.494833e-02 ( 4.089004e+00 -7.256074e-01 -7.520886e-03 ) 3.241795e-04 9.889119e-03 1.125759e-02 ( -4.968750e+00 -1.468750e+00 1.468750e+00 ) 5.066950e+00 ( -4.968750e+00 1.468750e+00 -1.468750e+00 ) 1.006173e+00 1.905586e-01 
7            2.496526e-06 ( -2.187500e-01 -9.375000e-02 3.125000e-02 ) 1.399976e+00 ( 4.020190e+00 -8.161492e-01 -2.071421e-01 ) 5.197039e-03 3.209635e-02 -6.878274e-01 ( -4.011867e+00 5.663311e-01 1.603288e-01 ) 9.204398e-03 ( 3.359375e+00 -6.406250e-01 1.562500e-02 ) 3.309500e-04 9.429562e-03 5.741243e-03 ( -4.968750e+00 -1.468750e+00 1.468750e+00 ) 5.875019e+00 ( -4.968750e+00 1.468750e+00 -1.468750e+00 ) 1.008001e+00 2.155642e-01 
8            3.002533e-06 ( -2.187500e-01 -9.375000e-02 3.125000e-02 ) 1.482644e+00 ( 4.011869e+00 -7.930200e-01 -2.149059e-01 ) 5.442631e-03 3.429048e-02 -6.001775e-01 ( -4.011867e+00 5.663311e-01 1.603288e-01 ) 1.282080e-02 ( 3.484375e+00 -5.781250e-01 4.687500e-02 ) 3.457691e-04 9.089979e-03 3.230691e-03 ( -4.968750e+00 -1.468750e+00 1.468750e+00 ) 6.810739e+00 ( 4.968750e+00 1.468750e+00 -1.468750e+00 ) 1.009898e+00 2.402700e-01 
9            4.038801e-06 ( -2.187500e-01 -9.375000e-02 3.125000e-02 ) 1.531474e+00 ( 4.020190e+00 -8.161492e-01 -2.071421e-01 ) 5.904283e-03 3.688657e-02 -6.107966e-01 ( -4.003938e+00 6.360476e-01 -2.154409e-01 ) 2.061277e-02 ( 3.609375e+00 -5.781250e-01 4.687500e-02 ) 4.019516e-04 9.459476e-03 2.010830e-03 ( -4.968750e+00 -1.468750e+00 1.468750e+00 ) 8.024249e+00 ( -4.968750e+00 1.218750e+00 -1.468750e+00 ) 1.011854e+00 2.647537e-01 
10           3.991694e-06 ( -2.187500e-01 -9.375000e-02 3.125000e-02 ) 1.550906e+00 ( 4.020190e+00 -8.161492e-01 -2.071421e-01 ) 6.574682e-03 3.968892e-02 -6.439567e-01 ( 4.027983e+00 -8.331992e-01 2.322071e-01 ) 3.231238e-02 ( 3.978927e+00 -7.158330e-01 -1.679690e-01 ) 6.006295e-04 1.013154e-02 1.360851e-03 ( -4.968750e+00 -1.468750e+00 1.468750e+00 ) 9.527651e+00 ( -4.968750e+00 1.156250e+00 -1.468750e+00 ) 1.013867e+00 2.892149e-01 
11           3.448724e-06 ( -2.187500e-01 -9.375000e-02 3.125000e-02 ) 1.555753e+00 ( 3.995616e+00 -7.928051e-01 -2.069886e-01 ) 7.367709e-03 4.250035e-02 -6.490272e-01 ( 4.019810e+00 -8.330920e-01 2.318214e-01 ) 6.256176e-02 ( 3.978927e+00 -7.158330e-01 -1.679690e-01 ) 7.300291e-04 1.071463e-02 9.790524e-04 ( -4.968750e+00 -1.468750e+00 1.468750e+00 ) 1.138960e+01 ( -4.968750e+00 1.156250e+00 -1.468750e+00 ) 1.015937e+00 3.138442e-01 
12           3.207899e-06 ( -2.187500e-01 -9.375000e-02 9.375000e-02 ) 1.567658e+00 ( 3.980166e+00 -7.617162e-01 -2.069701e-01 ) 8.188448e-03 4.518684e-02 -6.143657e-01 ( 4.028850e+00 -8.626773e-01 2.233653e-01 ) 9.370283e-02 ( 4.058110e+00 -9.339020e-01 1.950432e-02 ) 8.091044e-04 1.115413e-02 7.346600e-04 ( -4.968750e+00 -1.468750e+00 1.468750e+00 ) 1.349268e+01 ( -4.968750e+00 1.156250e+00 -1.468750e+00 ) 1.018061e+00 3.388034e-01 
13           5.238773e-06 ( -2.187500e-01 -9.375000e-02 9.375000e-02 ) 1.582193e+00 ( 3.990431e+00 -8.208057e-01 -1.953532e-01 ) 8.986531e-03 4.771867e-02 -5.274361e-01 ( 4.011392e+00 -8.322706e-01 2.309219e-01 ) 1.303172e-01 ( 4.058110e+00 -9.339020e-01 1.950432e-02 ) 8.183068e-04 1.147957e-02 5.680641e-04 ( -4.968750e+00 -1.468750e+00 1.468750e+00 ) 1.579882e+01 ( -4.968750e+00 1.156250e+00 -1.468750e+00 ) 1.020236e+00 3.642021e-01 
14           8.079652e-06 ( -2.187500e-01 -9.375000e-02 1.562500e-01 ) 1.594915e+00 ( 3.990602e+00 -8.368053e-01 -1.953883e-01 ) 9.769705e-03 5.012884e-02 -4.524791e-01 ( 4.002783e+00 -8.320240e-01 2.309577e-01 ) 1.852698e-01 ( 3.956743e+00 -6.602911e-01 1.367044e-01 ) 1.047414e-03 1.175453e-02 4.502973e-04 ( -4.968750e+00 -1.468750e+00 1.468750e+00 ) 1.822964e+01 ( -4.968750e+00 1.156250e+00 -1.468750e+00 ) 1.022462e+00 3.900447e-01 
15           1.071283e-05 ( -2.187500e-01 -9.375000e-02 1.562500e-01 ) 1.607197e+00 ( 3.974425e+00 -8.214852e-01 -1.952564e-01 ) 1.057379e-02 5.244611e-02 -4.387498e-01 ( -3.942585e+00 5.070581e-01 -3.898704e-02 ) 2.503612e-01 ( 3.956743e+00 -6.602911e-01 1.367044e-01 ) 1.080291e-03 1.213344e-02 3.652726e-04 ( -4.968750e+00 -1.468750e+00 1.468750e+00 ) 2.074322e+01 ( -4.968750e+00 1.156250e+00 -1.468750e+00 ) 1.024723e+00 4.162631e-01 
16           1.098705e-05 ( -1.562500e-01 -3.125000e-02 1.562500e-01 ) 1.620709e+00 ( 3.958804e+00 -8.058195e-01 -1.952544e-01 ) 1.142662e-02 5.467171e-02 -4.084145e-01 ( -3.942537e+00 7.424454e-01 2.428063e-01 ) 3.148584e-01 ( 3.956743e+00 -6.602911e-01 1.367044e-01 ) 1.138600e-03 1.268925e-02 3.024913e-04 ( -4.968750e+00 -1.468750e+00 1.468750e+00 ) 2.326381e+01 ( -4.968750e+00 1.156250e+00 -1.468750e+00 ) 1.027018e+00 4.428539e-01 
17           1.168028e-05 ( -1.562500e-01 -3.125000e-02 2.187500e-01 ) 1.620580e+00 ( 3.958804e+00 -8.058195e-01 -1.952544e-01 ) 1.233399e-02 5.678094e-02 -4.040696e-01 ( -3.890088e+00 5.778706e-01 2.347444e-01 ) 3.767318e-01 ( 3.949669e+00 -6.437752e-01 1.132818e-01 ) 1.287424e-03 1.342550e-02 2.552898e-04 ( -4.968750e+00 -1.468750e+00 1.468750e+00 ) 2.567011e+01 ( -4.968750e+00 1.156250e+00 -1.468750e+00 ) 1.029342e+00 4.698395e-01 
18           1.222237e-05 ( -1.562500e-01 -3.125000e-02 2.187500e-01 ) 1.623264e+00 ( 3.973846e+00 -8.831642e-01 1.638617e-01 ) 1.328341e-02 5.874097e-02 -4.148356e-01 ( -3.859251e+00 5.155519e-01 2.031881e-01 ) 4.233236e-01 ( 3.949669e+00 -6.437752e-01 1.132818e-01 ) 1.472520e-03 1.424952e-02 2.193924e-04 ( -4.968750e+00 -1.468750e+00 1.468750e+00 ) 2.906754e+01 ( -4.906250e+00 1.156250e+00 -1.468750e+00 ) 1.031689e+00 4.972330e-01 
19           1.274860e-05 ( -1.562500e-01 -3.125000e-02 2.187500e-01 ) 1.623386e+00 ( 3.973846e+00 -8.831642e-01 1.638617e-01 ) 1.425411e-02 6.052204e-02 -4.327438e-01 ( -3.859251e+00 5.155519e-01 -2.031881e-01 ) 4.494184e-01 ( 3.949669e+00 -6.437752e-01 1.132818e-01 ) 1.617492e-03 1.503419e-02 1.916170e-04 ( -4.968750e+00 -1.468750e+00 1.468750e+00 ) 3.392363e+01 ( 4.968750e+00 -7.812500e-01 -1.468750e+00 ) 1.034054e+00 5.250444e-01 
20           1.322724e-05 ( -1.562500e-01 -3.125000e-02 2.187500e-01 ) 1.609072e+00 ( -3.942457e+00 5.700213e-01 2.372054e-02 ) 1.522412e-02 6.210982e-02 -4.302050e-01 ( -3.828104e+00 5.156140e-01 -2.343860e-01 ) 4.612393e-01 ( -3.995680e+00 9.179693e-01 -5.078155e-02 ) 1.685558e-03 1.568654e-02 1.696394e-04 ( -4.968750e+00 -1.468750e+00 1.468750e+00 ) 3.895719e+01 ( 4.968750e+00 -7.812500e-01 -1.468750e+00 ) 1.036430e+00 5.532290e-01 
21           1.322000e-05 ( -1.562500e-01 -3.125000e-02 2.812500e-01 ) 1.602363e+00 ( 3.973829e+00 -8.831445e-01 1.487496e-01 ) 1.617501e-02 6.350255e-02 -4.392207e-01 ( -3.828104e+00 5.156140e-01 -2.343860e-01 ) 4.658686e-01 ( 4.020307e+00 -8.391752e-01 1.680610e-01 ) 1.674280e-03 1.617054e-02 1.517647e-04 ( -4.968750e+00 -1.468750e+00 1.468750e+00 ) 4.340399e+01 ( 4.968750e+00 -7.812500e-01 -1.468750e+00 ) 1.038813e+00 5.817268e-01 
22           1.304073e-05 ( -1.562500e-01 -3.125000e-02 2.812500e-01 ) 1.584458e+00 ( 3.973829e+00 -8.831445e-01 1.487496e-01 ) 1.709329e-02 6.470663e-02 -4.321552e-01 ( -3.828105e+00 4.843630e-01 -2.031343e-01 ) 4.568343e-01 ( 4.026817e+00 -8.479581e-01 1.679710e-01 ) 1.891144e-03 1.649932e-02 1.367659e-04 ( -4.968750e+00 -1.468750e+00 1.468750e+00 ) 4.966349e+01 ( 4.968750e+00 -8.437500e-01 -1.468750e+00 ) 1.041194e+00 6.104514e-01 
23           1.321214e-05 ( -1.562500e-01 -3.125000e-02 3.437500e-01 ) 1.558734e+00 ( 3.951229e+00 -8.921306e-01 1.406873e-01 ) 1.797100e-02 6.573758e-02 -4.349394e-01 ( 3.890625e+00 -1.109375e+00 -2.656252e-01 ) 4.379690e-01 ( 4.026817e+00 -8.479581e-01 1.679710e-01 ) 1.626655e-03 1.670664e-02 1.236475e-04 ( -4.968750e+00 -1.468750e+00 1.468750e+00 ) 5.638292e+01 ( 4.968750e+00 -8.437500e-01 -1.468750e+00 ) 1.043575e+00 6.394297e-01 
24           1.277396e-05 ( -1.562500e-01 -3.125000e-02 3.437500e-01 ) 1.535088e+00 ( 3.973663e+00 -8.679123e-01 1.487366e-01 ) 1.880527e-02 6.661711e-02 -4.358008e-01 ( 3.890625e+00 -1.140625e+00 -2.656250e-01 ) 4.131910e-01 ( 4.026817e+00 -8.479581e-01 1.679710e-01 ) 1.592555e-03 1.683477e-02 1.116265e-04 ( -4.968750e+00 -1.468750e+00 1.468750e+00 ) 6.195578e+01 ( 4.968750e+00 -8.437500e-01 -1.468750e+00 ) 1.045952e+00 6.684669e-01 
25           1.280739e-05 ( -1.562500e-01 -3.125000e-02 3.437500e-01 ) 1.509073e+00 ( 3.973663e+00 -8.679123e-01 1.487366e-01 ) 1.959555e-02 6.737063e-02 -4.330816e-01 ( 3.890625e+00 -1.171875e+00 -2.656250e-01 ) 3.875848e-01 ( 4.026817e+00 -8.479581e-01 1.679710e-01 ) 1.536578e-03 1.691395e-02 1.001270e-04 ( -4.968750e+00 -1.468750e+00 1.468750e+00 ) 6.486175e+01 ( 4.968750e+00 -8.437500e-01 -1.468750e+00 ) 1.048322e+00 6.974473e-01 
26           1.303848e-05 ( -1.562500e-01 -3.125000e-02 4.062500e-01 ) 1.482503e+00 ( 3.973663e+00 -8.679123e-01 1.487366e-01 ) 2.034474e-02 6.802680e-02 -4.309726e-01 ( 3.859375e+00 -1.109375e+00 -3.281250e-01 ) 3.666707e-01 ( -3.995680e+00 7.617191e-01 1.835940e-01 ) 1.470387e-03 1.696696e-02 8.873116e-05 ( -4.968750e+00 -1.468750e+00 1.468750e+00 ) 7.562272e+01 ( 4.968750e+00 -7.812500e-01 -1.468750e+00 ) 1.050685e+00 7.264176e-01 
27           1.323416e-05 ( -1.562500e-01 -3.125000e-02 4.062500e-01 ) 1.462383e+00 ( 3.973822e+00 -8.831313e-01 1.325528e-01 ) 2.105714e-02 6.861020e-02 -4.308720e-01 ( 3.859375e+00 -1.140625e+00 -3.281250e-01 ) 3.484235e-01 ( -3.995680e+00 7.304683e-01 1.835941e-01 ) 1.309025e-03 1.700446e-02 7.718462e-05 ( 4.968750e+00 1.468750e+00 1.468750e+00 ) 8.473060e+01 ( 4.968750e+00 -7.812500e-01 -1.468750e+00 ) 1.053036e+00 7.550056e-01 
28           1.438159e-05 ( -1.562500e-01 -3.125000e-02 4.062500e-01 ) 1.448601e+00 ( 3.911541e+00 -7.122700e-01 -1.488490e-01 ) 2.173877e-02 6.914254e-02 -4.268463e-01 ( 3.859375e+00 -1.171875e+00 -3.281250e-01 ) 3.335157e-01 ( -3.995680e+00 7.226557e-01 1.835945e-01 ) 1.276642e-03 1.703238e-02 6.528551e-05 ( 4.968750e+00 1.468750e+00 1.468750e+00 ) 8.713569e+01 ( 4.968750e+00 -7.812500e-01 -1.468750e+00 ) 1.055378e+00 7.828733e-01 
29           1.590695e-05 ( -1.562500e-01 -3.125000e-02 4.687500e-01 ) 1.441843e+00 ( 3.911541e+00 -7.122700e-01 -1.488490e-01 ) 2.239584e-02 6.963882e-02 -4.202368e-01 ( 3.859375e+00 -1.171875e+00 -3.281250e-01 ) 3.207096e-01 ( -3.995680e+00 7.148431e-01 1.835946e-01 ) 1.240992e-03 1.705155e-02 5.243555e-05 ( 4.968750e+00 1.468750e+00 1.468750e+00 ) 8.223644e+01 ( 4.968750e+00 -7.812500e-01 -1.468750e+00 ) 1.057709e+00 8.104177e-01 
30           1.839291e-05 ( -1.562500e-01 -3.125000e-02 4.687500e-01 ) 1.436411e+00 ( 3.911541e+00 -7.122700e-01 -1.488490e-01 ) 2.303468e-02 7.010833e-02 -4.131047e-01 ( 3.859375e+00 -1.203125e+00 -3.281250e-01 ) 3.102598e-01 ( -3.995682e+00 6.445289e-01 1.523460e-01 ) 1.210006e-03 1.706314e-02 3.767847e-05 ( 4.968750e+00 1.468750e+00 1.468750e+00 ) 8.327791e+01 ( 4.968750e+00 -7.187500e-01 -1.468750e+00 ) 1.060032e+00 8.384008e-01 
31           2.167179e-05 ( -1.562500e-01 -3.125000e-02 5.312500e-01 ) 1.431936e+00 ( 3.911541e+00 -7.122700e-01 -1.488490e-01 ) 2.366017e-02 7.055761e-02 -4.009734e-01 ( 3.859375e+00 -1.171875e+00 -3.593750e-01 ) 3.011113e-01 ( -3.995682e+00 6.445289e-01 1.523460e-01 ) 1.185568e-03 1.706301e-02 2.071896e-05 ( -4.968750e+00 -1.468750e+00 1.468750e+00 ) 8.286999e+01 ( 4.968750e+00 -7.187500e-01 -1.468750e+00 ) 1.062344e+00 8.668124e-01 
32           2.598230e-05 ( -1.562500e-01 -3.125000e-02 5.312500e-01 ) 1.431257e+00 ( -3.942458e+00 9.137959e-01 -5.497064e-02 ) 2.427614e-02 7.099166e-02 -3.929546e-01 ( 3.859375e+00 -1.203125e+00 -3.593750e-01 ) 2.931589e-01 ( -3.995683e+00 6.523407e-01 1.601600e-01 ) 1.169337e-03 1.704872e-02 8.616732e-05 ( -4.968750e+00 -1.468750e+00 1.468750e+00 ) 8.353427e+01 ( 4.968750e+00 -6.562500e-01 -1.468750e+00 ) 1.064648e+00 8.958689e-01 
33           2.858209e-05 ( -2.187500e-01 -3.125000e-02 5.937500e-01 ) 1.436712e+00 ( -3.974951e+00 9.296908e-01 -3.906492e-02 ) 2.488567e-02 7.141328e-02 -3.824606e-01 ( 3.828125e+00 -1.171875e+00 -3.906250e-01 ) 2.864977e-01 ( -3.995680e+00 6.210931e-01 1.367197e-01 ) 1.161759e-03 1.702148e-02 1.143620e-04 ( 4.906250e+00 1.468750e+00 1.468750e+00 ) 8.345152e+01 ( 4.968750e+00 -5.937500e-01 -1.468750e+00 ) 1.066942e+00 9.258573e-01 
34           2.575237e-05 ( -2.187500e-01 -3.125000e-02 5.937500e-01 ) 1.442579e+00 ( -3.974951e+00 9.296908e-01 -3.906492e-02 ) 2.549106e-02 7.182370e-02 -3.725342e-01 ( 3.859375e+00 -1.234375e+00 3.593750e-01 ) 2.807436e-01 ( -3.995680e+00 6.210931e-01 1.367197e-01 ) 1.160044e-03 1.697957e-02 1.003353e-04 ( 4.906250e+00 1.468750e+00 1.468750e+00 ) 9.158461e+01 ( -4.968750e+00 9.062500e-01 -1.468750e+00 ) 1.069228e+00 9.574190e-01 
35           2.269267e-05 ( -2.187500e-01 -3.125000e-02 6.562500e-01 ) 1.448276e+00 ( -3.974951e+00 9.296908e-01 -3.906492e-02 ) 2.609523e-02 7.222471e-02 -3.782568e-01 ( 3.942483e+00 -7.894247e-01 -7.529508e-03 ) 2.758934e-01 ( -3.995680e+00 6.210931e-01 1.367197e-01 ) 1.155639e-03 1.692011e-02 8.835155e-05 ( 4.906250e+00 1.468750e+00 1.468750e+00 ) 9.551239e+01 ( -4.968750e+00 9.062500e-01 -1.468750e+00 ) 1.071512e+00 9.906911e-01 
36           1.981048e-05 ( -2.187500e-01 -3.125000e-02 6.562500e-01 ) 1.453521e+00 ( -3.974951e+00 9.296908e-01 -3.906492e-02 ) 2.669949e-02 7.261742e-02 -3.839530e-01 ( 3.942483e+00 -7.894247e-01 -7.529508e-03 ) 2.714517e-01 ( -3.995680e+00 6.210931e-01 1.367197e-01 ) 1.227952e-03 1.685528e-02 7.795418e-05 ( 4.906250e+00 1.468750e+00 1.468750e+00 ) 1.052072e+02 ( -4.968750e+00 8.437500e-01 -1.468750e+00 ) 1.073793e+00 1.026200e+00 
37           1.808513e-05 ( -2.187500e-01 -3.125000e-02 6.562500e-01 ) 1.458197e+00 ( -3.974951e+00 9.296908e-01 -3.906492e-02 ) 2.730210e-02 7.300198e-02 -3.884714e-01 ( 3.942483e+00 -7.894247e-01 -7.529508e-03 ) 2.677296e-01 ( -3.995680e+00 6.210931e-01 1.367197e-01 ) 1.201360e-03 1.677386e-02 6.796818e-05 ( -4.906250e+00 -1.468750e+00 1.468750e+00 ) 1.144594e+02 ( -4.968750e+00 8.437500e-01 -1.468750e+00 ) 1.076083e+00 1.064120e+00 
38           1.906855e-05 ( -2.187500e-01 -3.125000e-02 7.187500e-01 ) 1.462959e+00 ( -3.959355e+00 9.296919e-01 -2.343972e-02 ) 2.790740e-02 7.337945e-02 -3.923424e-01 ( 3.942483e+00 -7.894247e-01 -7.529508e-03 ) 2.644436e-01 ( -3.995681e+00 5.820285e-01 -8.203334e-02 ) 1.180501e-03 1.668618e-02 6.388114e-05 ( -4.906250e+00 -1.468750e+00 1.468750e+00 ) 1.230658e+02 ( 4.968750e+00 -3.437500e-01 -1.468750e+00 ) 1.078382e+00 1.104351e+00 
39           2.368051e-05 ( -2.187500e-01 -3.125000e-02 7.187500e-01 ) 1.467460e+00 ( -3.959355e+00 9.296919e-01 -2.343972e-02 ) 2.851368e-02 7.375021e-02 -3.956915e-01 ( 3.942483e+00 -7.894247e-01 -7.529508e-03 ) 2.622569e-01 ( -3.995681e+00 5.820285e-01 -8.203334e-02 ) 1.161754e-03 1.659312e-02 6.432558e-05 ( -4.906250e+00 -1.468750e+00 1.468750e+00 ) 1.337095e+02 ( -4.968750e+00 7.812500e-01 -1.468750e+00 ) 1.080690e+00 1.146381e+00 
40           3.157949e-05 ( -2.187500e-01 -3.125000e-02 7.187500e-01 ) 1.472389e+00 ( -3.942457e+00 9.299760e-01 -7.537399e-03 ) 2.912092e-02 7.411468e-02 -3.986883e-01 ( 3.942483e+00 -7.894247e-01 -7.529508e-03 ) 2.604634e-01 ( -3.995681e+00 5.820285e-01 -8.203334e-02 ) 1.141945e-03 1.649680e-02 6.547895e-05 ( -4.906250e+00 -1.468750e+00 1.468750e+00 ) 1.490026e+02 ( 4.968750e+00 -2.812500e-01 -1.468750e+00 ) 1.083012e+00 1.190181e+00 
41           4.204895e-05 ( -2.187500e-01 -3.125000e-02 6.562500e-01 ) 1.477264e+00 ( -3.942457e+00 9.299760e-01 -7.537399e-03 ) 2.972996e-02 7.447317e-02 -4.015025e-01 ( 3.942483e+00 -7.894247e-01 -7.529508e-03 ) 2.590448e-01 ( -3.995681e+00 5.820285e-01 -8.203334e-02 ) 1.118460e-03 1.639890e-02 6.580518e-05 ( -4.906250e+00 -1.468750e+00 1.468750e+00 ) 1.556132e+02 ( 4.968750e+00 -2.187500e-01 -1.468750e+00 ) 1.085344e+00 1.235846e+00 
42           5.467672e-05 ( -2.187500e-01 -3.125000e-02 6.562500e-01 ) 1.481853e+00 ( -3.942457e+00 9.299760e-01 -7.537399e-03 ) 3.034181e-02 7.482584e-02 -4.048682e-01 ( 3.975128e+00 -7.901270e-01 -7.842507e-03 ) 2.578502e-01 ( -3.995681e+00 5.820285e-01 -8.203334e-02 ) 1.090632e-03 1.630106e-02 6.313988e-05 ( -4.843750e+00 -1.468750e+00 1.468750e+00 ) 1.676063e+02 ( 4.968750e+00 -2.187500e-01 -1.468750e+00 ) 1.087687e+00 1.283912e+00 
43           5.290606e-05 ( -2.812500e-01 -3.125000e-02 6.562500e-01 ) 1.486233e+00 ( -3.942457e+00 9.299760e-01 -7.537399e-03 ) 3.095688e-02 7.517278e-02 -4.089716e-01 ( 3.975128e+00 -7.901270e-01 -7.842507e-03 ) 2.568740e-01 ( -3.995682e+00 5.976540e-01 -1.054711e-01 ) 1.061272e-03 1.620500e-02 5.020496e-05 ( -4.843750e+00 -1.468750e+00 1.468750e+00 ) 1.735832e+02 ( -4.968750e+00 7.187500e-01 -1.468750e+00 ) 1.090025e+00 1.334211e+00 
44           5.095366e-05 ( -2.812500e-01 3.125000e-02 -1.343750e+00 ) 1.490216e+00 ( -3.942457e+00 9.299760e-01 -7.537399e-03 ) 3.157525e-02 7.551393e-02 -4.132052e-01 ( 3.975128e+00 -7.901270e-01 -7.842507e-03 ) 2.568911e-01 ( -3.995682e+00 6.445289e-01 1.523460e-01 ) 1.034275e-03 1.611241e-02 5.158187e-05 ( -4.843750e+00 -1.468750e+00 1.468750e+00 ) 1.788244e+02 ( 4.968750e+00 -1.562500e-01 -1.468750e+00 ) 1.092358e+00 1.386637e+00 
45           5.025630e-05 ( -3.437500e-01 3.125000e-02 -1.468750e+00 ) 1.493752e+00 ( -3.942457e+00 9.299760e-01 -7.537399e-03 ) 3.219693e-02 7.584923e-02 -4.177303e-01 ( 3.975128e+00 -7.901270e-01 -7.842507e-03 ) 2.577180e-01 ( -3.995682e+00 6.445289e-01 1.523460e-01 ) 1.011592e-03 1.602371e-02 5.506416e-05 ( 4.968750e+00 9.375000e-02 1.468750e+00 ) 2.016952e+02 ( -4.968750e+00 6.562500e-01 -1.468750e+00 ) 1.094681e+00 1.440663e+00 
46           6.126860e-05 ( -3.437500e-01 3.125000e-02 -1.468750e+00 ) 1.496810e+00 ( -3.942457e+00 9.299760e-01 -7.537399e-03 ) 3.282182e-02 7.617858e-02 -4.227612e-01 ( 3.975128e+00 -7.901270e-01 -7.842507e-03 ) 2.593597e-01 ( -3.995682e+00 8.554711e-01 1.523460e-01 ) 9.927328e-04 1.593936e-02 4.191979e-05 ( 4.968750e+00 9.375000e-02 1.468750e+00 ) 2.175669e+02 ( -4.968750e+00 6.562500e-01 -1.468750e+00 ) 1.096991e+00 1.496367e+00 
47           6.770494e-05 ( -2.812500e-01 3.125000e-02 7.187500e-01 ) 1.499051e+00 ( -3.942457e+00 9.299760e-01 -7.537399e-03 ) 3.344969e-02 7.650193e-02 -4.285507e-01 ( 3.975128e+00 -7.901270e-01 -7.842507e-03 ) 2.625313e-01 ( -3.995681e+00 8.320335e-01 1.679715e-01 ) 9.751604e-04 1.586037e-02 3.578484e-05 ( 4.968750e+00 9.375000e-02 1.468750e+00 ) 2.224268e+02 ( -4.968750e+00 6.562500e-01 -1.468750e+00 ) 1.099281e+00 1.552182e+00 
48           5.318608e-05 ( -3.437500e-01 3.125000e-02 -1.406250e+00 ) 1.499854e+00 ( -3.942457e+00 9.299760e-01 -7.537399e-03 ) 3.408026e-02 7.681911e-02 -4.352850e-01 ( 3.975128e+00 -7.901270e-01 -7.842507e-03 ) 2.655853e-01 ( -3.995680e+00 7.929701e-01 1.835953e-01 ) 9.559227e-04 1.578772e-02 3.324832e-05 ( 4.968750e+00 9.375000e-02 1.468750e+00 ) 2.251129e+02 ( -4.968750e+00 5.937500e-01 -1.468750e+00 ) 1.101549e+00 1.606212e+00 
49           8.669112e-05 ( -3.437500e-01 3.125000e-02 -1.343750e+00 ) 1.499779e+00 ( -3.942457e+00 9.299760e-01 -7.537399e-03 ) 3.471315e-02 7.712994e-02 -4.437449e-01 ( 3.942809e+00 -8.060368e-01 -7.408782e-03 ) 2.690860e-01 ( -3.995680e+00 7.929701e-01 1.835953e-01 ) 9.330587e-04 1.572191e-02 3.204862e-05 ( 4.968750e+00 9.375000e-02 1.468750e+00 ) 2.562722e+02 ( -4.968750e+00 5.937500e-01 -1.468750e+00 ) 1.103787e+00 1.659010e+00 
50           6.421302e-05 ( -3.437500e-01 3.125000e-02 -1.343750e+00 ) 1.500174e+00 ( 4.004849e+00 -9.458415e-01 -5.497130e-02 ) 3.534775e-02 7.743420e-02 -4.555357e-01 ( 3.942809e+00 -8.060368e-01 -7.408782e-03 ) 2.720301e-01 ( -3.995680e+00 7.929701e-01 1.835953e-01 ) 9.065330e-04 1.566308e-02 3.134805e-05 ( 4.968750e+00 9.375000e-02 1.468750e+00 ) 2.776133e+02 ( -4.968750e+00 5.937500e-01 -1.468750e+00 ) 1.106011e+00 1.709751e+00 
