# Time           	Umin             	at location      	Umax             	at location      	Umean            	UstDev           	pmin             	at location      	pmax             	at location      	pmean            	pstDev           	kmin             	at location      	kmax             	at location      	kmean            	kstDev           	epsilonmin       	at location      	epsilonmax       	at location      	epsilonmean      	epsilonstDev     
0.00125          1.0890721190e-04 ( 5.7694735475e-01 2.9999350000e-03 7.3000000000e-03 ) 6.3949069694e-01 ( 1.4600000000e-01 2.9685658575e-01 7.3000000000e-03 ) 7.5961046944e-03 2.2327148012e-02 -7.4918809002e+00 ( 1.4600000000e-01 2.9685658575e-01 7.3000000000e-03 ) 1.0569655685e+03 ( 6.3478260850e-03 2.9999350000e-03 7.3000000000e-03 ) 2.7687261723e+01 1.1596975797e+02 3.7123463769e-03 ( 3.2305212525e-01 2.9999350000e-03 7.3000000000e-03 ) 4.1093977313e-03 ( 1.4600000000e-01 3.0961851525e-01 7.3000000000e-03 ) 3.7451768620e-03 1.3966187437e-05 3.7642742659e-03 ( 5.2052619265e-01 5.7761903525e-01 7.3000000000e-03 ) 3.0678426586e-02 ( 1.7139130435e-01 2.9999350000e-03 7.3000000000e-03 ) 4.5277664058e-03 3.3742361822e-03 
0.00270833       1.9134201107e-04 ( 5.7694735475e-01 2.9999350000e-03 7.3000000000e-03 ) 3.6628461445e-01 ( 1.5869565220e-01 2.8409465620e-01 7.3000000000e-03 ) 1.2282771433e-02 1.5815103249e-02 -5.6791490371e+00 ( 6.3478260850e-03 5.7761903525e-01 7.3000000000e-03 ) 1.0435360645e+03 ( 6.3478260850e-03 2.9999350000e-03 7.3000000000e-03 ) 2.7228901120e+01 1.1529620536e+02 3.5985254435e-03 ( 1.5869565220e-01 2.9685658575e-01 7.3000000000e-03 ) 4.3911260379e-03 ( 3.1739130435e-02 5.7761903525e-01 7.3000000000e-03 ) 3.7443314815e-03 6.1399985487e-05 3.5473021835e-03 ( 1.5869565220e-01 2.9685658575e-01 7.3000000000e-03 ) 3.0291782200e-02 ( 1.7139130435e-01 2.9999350000e-03 7.3000000000e-03 ) 4.5155527933e-03 3.3291618689e-03 
0.00453125       3.1723674373e-04 ( 5.7694735475e-01 2.9999350000e-03 7.3000000000e-03 ) 2.9794382770e-01 ( 1.5869565220e-01 2.8409465620e-01 7.3000000000e-03 ) 1.9827388875e-02 2.0062994569e-02 -5.6868028447e+00 ( 6.3478260850e-03 5.7761903525e-01 7.3000000000e-03 ) 1.0494506910e+03 ( 6.3478260850e-03 2.9999350000e-03 7.3000000000e-03 ) 2.7579186322e+01 1.1639248975e+02 3.5736638635e-03 ( 1.4600000000e-01 2.9999350000e-03 7.3000000000e-03 ) 2.0340408996e-02 ( 3.1739130435e-02 5.7761903525e-01 7.3000000000e-03 ) 3.8816615833e-03 1.5675517833e-03 3.5851950225e-03 ( 1.4600000000e-01 2.8409465620e-01 7.3000000000e-03 ) 2.9940752920e-02 ( 1.7139130435e-01 2.9999350000e-03 7.3000000000e-03 ) 4.6074376656e-03 3.4803240264e-03 
0.00635417       4.4589549676e-04 ( 5.7694735475e-01 2.9999350000e-03 7.3000000000e-03 ) 3.4825181498e-01 ( 1.7139130435e-01 2.8409465620e-01 7.3000000000e-03 ) 2.7561141565e-02 2.6290736780e-02 -5.6885925215e+00 ( 1.9043478260e-02 5.7761903525e-01 7.3000000000e-03 ) 1.0575689857e+03 ( 6.3478260850e-03 2.9999350000e-03 7.3000000000e-03 ) 2.7946344602e+01 1.1790680626e+02 3.4820553652e-03 ( 1.4600000000e-01 2.9999350000e-03 7.3000000000e-03 ) 3.3399893267e-02 ( 3.1739130435e-02 5.7761903525e-01 7.3000000000e-03 ) 3.9964589605e-03 2.7999795823e-03 3.4660807328e-03 ( 1.4600000000e-01 2.8409465620e-01 7.3000000000e-03 ) 1.7875348187e-01 ( 6.3478260850e-03 5.7761903525e-01 7.3000000000e-03 ) 4.7618191650e-03 5.4327389762e-03 
0.00817708       5.7126426720e-04 ( 2.4756521740e-01 5.7761903525e-01 7.3000000000e-03 ) 4.2916080504e-01 ( 1.7139130435e-01 2.8409465620e-01 7.3000000000e-03 ) 3.5293396438e-02 3.2776132553e-02 -5.6894957714e+00 ( 1.9043478260e-02 5.7761903525e-01 7.3000000000e-03 ) 1.0655788452e+03 ( 6.3478260850e-03 2.9999350000e-03 7.3000000000e-03 ) 2.8310811258e+01 1.1940380703e+02 3.3877296892e-03 ( 1.4600000000e-01 2.9999350000e-03 7.3000000000e-03 ) 4.3919769399e-02 ( 1.9043478260e-02 5.7761903525e-01 7.3000000000e-03 ) 4.0999653891e-03 3.8109720144e-03 3.3619137361e-03 ( 1.4600000000e-01 2.8409465620e-01 7.3000000000e-03 ) 3.7493597287e-01 ( 6.3478260850e-03 5.7761903525e-01 7.3000000000e-03 ) 4.9289472960e-03 9.2016931105e-03 
0.01             5.9055242765e-04 ( 2.4756521740e-01 5.7761903525e-01 7.3000000000e-03 ) 5.0422305727e-01 ( 1.5869565220e-01 2.9685658575e-01 7.3000000000e-03 ) 4.2941154841e-02 3.8973159196e-02 -5.6898834292e+00 ( 1.9043478260e-02 5.7761903525e-01 7.3000000000e-03 ) 1.0737173200e+03 ( 6.3478260850e-03 2.9999350000e-03 7.3000000000e-03 ) 2.8684316202e+01 1.2092036770e+02 3.2952236633e-03 ( 1.4600000000e-01 2.9999350000e-03 7.3000000000e-03 ) 5.2387451985e-02 ( 1.9043478260e-02 5.7761903525e-01 7.3000000000e-03 ) 4.1877210575e-03 4.6327042116e-03 3.2614934301e-03 ( 1.4600000000e-01 2.8409465620e-01 7.3000000000e-03 ) 5.6959291394e-01 ( 6.3478260850e-03 5.7761903525e-01 7.3000000000e-03 ) 5.0867714685e-03 1.3280921845e-02 
