# Time           	U.airmin         	at location      	U.airmax         	at location      	U.airmean        	U.airstDev       	pmin             	at location      	pmax             	at location      	pmean            	pstDev           	T.airmin         	at location      	T.airmax         	at location      	T.airmean        	T.airstDev       
0.05             1.9313590018e-03 ( 1.3330434780e-01 2.7133272665e-01 7.3000000000e-03 ) 1.2474558625e+00 ( 2.9499993500e-01 5.4379924760e-02 7.3000000000e-03 ) 1.5433812570e-01 1.1619396420e-01 -1.5249792332e+01 ( 2.7295652175e-01 2.7133272665e-01 7.3000000000e-03 ) 1.2167347205e+04 ( 6.3478260850e-03 2.9999350000e-03 7.3000000000e-03 ) 3.2354763675e+02 1.2765204262e+03 3.0000000000e+02 ( 6.3478260850e-03 2.9999350000e-03 7.3000000000e-03 ) 3.0000000000e+02 ( 6.3478260850e-03 2.9999350000e-03 7.3000000000e-03 ) 3.0000000000e+02 2.9558577808e-12 
