/*--------------------------------*- C++ -*----------------------------------*\
|       o        |                                                            |
|    o     o     |  HELYX (R) : Open-source CFD for Enterprise                |
|   o   O   o    |  Version : 4.4.0                                           |
|    o     o     |  ENGYS Ltd. <http://engys.com/>                            |
|       o        |                                                            |
\*---------------------------------------------------------------------------*/
FoamFile
{
    version     2.0;
    format      ascii;
    class       eMesh;
    object      propeller_line;
}
// * * * * * * * * * * * * * * * * * * * * * * * * * * * * * * * * * * * * * //

4748
(
    ( 3.48821 0.0194283 -0.19858 )
    ( 3.48821 0.0180913 -0.196802 )
    ( 3.48821 0.0165453 -0.195113 )
    ( 3.48821 0.0147971 -0.193545 )
    ( 3.48821 0.0128711 -0.192139 )
    ( 3.48821 0.0108289 -0.190945 )
    ( 3.48821 0.0086553 -0.189953 )
    ( 3.48821 0.00638143 -0.189184 )
    ( 3.48821 0.00404225 -0.188652 )
    ( 3.48821 0.00167463 -0.188361 )
    ( 3.48821 -6.84509E-4 -0.188311 )
    ( 3.48821 -0.00300006 -0.188494 )
    ( 3.48821 -0.00524034 -0.188893 )
    ( 3.48821 -0.00737826 -0.18949 )
    ( 3.48821 -0.00951088 -0.190312 )
    ( 3.48821 -0.011266 -0.191178 )
    ( 3.48821 -0.0132211 -0.192374 )
    ( 3.48821 -0.0149986 -0.193711 )
    ( 3.48821 -0.0166884 -0.195257 )
    ( 3.48821 -0.0182563 -0.197005 )
    ( 3.48821 -0.0196616 -0.198931 )
    ( 3.48821 -0.0208561 -0.200973 )
    ( 3.48821 -0.0218477 -0.203147 )
    ( 3.48821 -0.0226166 -0.20542 )
    ( 3.48821 -0.0231493 -0.20776 )
    ( 3.48821 -0.0234398 -0.210127 )
    ( 3.48821 -0.0234895 -0.212486 )
    ( 3.48821 -0.0233072 -0.214802 )
    ( 3.48821 -0.0229077 -0.217042 )
    ( 3.48821 -0.0223111 -0.21918 )
    ( 3.48821 -0.0214887 -0.221313 )
    ( 3.53695 0.0166408 -0.2011 )
    ( 3.53838 0.015593 -0.200045 )
    ( 3.53802 0.01522 -0.199463 )
    ( 3.53729 0.0153835 -0.199457 )
    ( 3.53545 0.0175898 -0.202192 )
    ( 3.53501 0.0159288 -0.199513 )
    ( 3.5282 0.0176975 -0.200191 )
    ( 3.52577 0.0183944 -0.200685 )
    ( 3.53149 0.0168105 -0.19975 )
    ( 3.53064 0.0170317 -0.199841 )
    ( 3.52454 0.0187623 -0.200998 )
    ( 3.52392 0.018947 -0.20117 )
    ( 3.52331 0.0191318 -0.20135 )
    ( 3.53325 0.0163634 -0.199607 )
    ( 3.48821 0.0206237 -0.200535 )
    ( 3.48821 -0.0206227 -0.223068 )
    ( 3.48821 -0.0194274 -0.225023 )
    ( 3.48821 -0.0180904 -0.2268 )
    ( 3.48821 -0.0165443 -0.22849 )
    ( 3.48821 -0.0147962 -0.230058 )
    ( 3.48821 -0.0128701 -0.231464 )
    ( 3.48821 -0.010828 -0.232658 )
    ( 3.48821 -0.00865435 -0.23365 )
    ( 3.48821 -0.00638048 -0.234419 )
    ( 3.48821 -0.0040413 -0.234951 )
    ( 3.48821 -0.00167368 -0.235242 )
    ( 3.48821 6.8546E-4 -0.235291 )
    ( 3.48821 0.00300102 -0.235109 )
    ( 3.48821 0.00524129 -0.23471 )
    ( 3.48821 0.00737921 -0.234113 )
    ( 3.48821 0.00951183 -0.233291 )
    ( 3.48821 0.011267 -0.232425 )
    ( 3.48821 0.013222 -0.231229 )
    ( 3.48821 0.0141196 -0.230587 )
    ( 3.48821 0.0149995 -0.229892 )
    ( 3.48821 0.0164841 -0.228551 )
    ( 3.48821 0.0166894 -0.228346 )
    ( 3.48821 0.016277 -0.228752 )
    ( 3.48821 0.0160681 -0.22895 )
    ( 3.48821 0.0158575 -0.229145 )
    ( 3.48821 0.0154315 -0.229525 )
    ( 3.48821 0.0180691 -0.226827 )
    ( 3.48821 0.0182572 -0.226598 )
    ( 3.48821 0.0178786 -0.227053 )
    ( 3.48821 0.0186243 -0.226133 )
    ( 3.48821 0.0189812 -0.225657 )
    ( 3.48821 0.0202836 -0.223669 )
    ( 3.48821 0.020857 -0.22263 )
    ( 3.48821 0.0226176 -0.218182 )
    ( 3.48821 0.0231503 -0.215843 )
    ( 3.48821 0.0234408 -0.213476 )
    ( 3.48821 0.0234905 -0.211116 )
    ( 3.48821 0.0233081 -0.208801 )
    ( 3.48821 0.0229086 -0.206561 )
    ( 3.48821 0.022312 -0.204423 )
    ( 3.48821 0.0214896 -0.20229 )
    ( 3.52369 0.0217497 -0.211362 )
    ( 3.52667 0.0211873 -0.208974 )
    ( 3.5166 0.0219709 -0.216702 )
    ( 3.5191 0.0220527 -0.214889 )
    ( 3.52155 0.0219697 -0.213033 )
    ( 3.52227 0.0219122 -0.212478 )
    ( 3.53435 0.0182165 -0.203008 )
    ( 3.53323 0.0187954 -0.203843 )
    ( 3.53057 0.0199545 -0.205853 )
    ( 3.53157 0.019552 -0.205091 )
    ( 3.52958 0.0203225 -0.206634 )
    ( 3.51956 0.020249 -0.202652 )
    ( 3.49179 0.0161827 -0.228915 )
    ( 3.49229 0.0162803 -0.228827 )
    ( 3.4916 0.0161528 -0.228941 )
    ( 3.49803 0.0179027 -0.227061 )
    ( 3.50055 0.0186713 -0.226019 )
    ( 3.50302 0.0194 -0.224865 )
    ( 3.50461 0.019842 -0.224061 )
    ( 3.50619 0.0202529 -0.22322 )
    ( 3.49332 0.0165217 -0.228598 )
    ( 3.49384 0.0166584 -0.228463 )
    ( 3.49435 0.0168004 -0.228319 )
    ( 3.49537 0.0170951 -0.228007 )
    ( 3.49671 0.0174971 -0.227553 )
    ( 3.49337 0.0212188 -0.222042 )
    ( 3.49156 0.0200219 -0.224203 )
    ( 3.4896 0.016379 -0.228691 )
    ( 3.48981 0.0162358 -0.228833 )
    ( 3.49006 0.0161474 -0.228922 )
    ( 3.49059 0.0160843 -0.228991 )
    ( 3.48946 0.0165408 -0.228529 )
    ( 3.48935 0.0168805 -0.228184 )
    ( 3.48821 0.0170941 -0.227928 )
    ( 3.48938 0.0172234 -0.227823 )
    ( 3.49003 0.0184833 -0.226368 )
    ( 3.48989 0.0182896 -0.226608 )
    ( 3.48976 0.01809 -0.226848 )
    ( 3.48954 0.0176729 -0.22733 )
    ( 3.48821 0.0196625 -0.224672 )
    ( 3.49075 0.0193007 -0.225283 )
    ( 3.48821 0.0174907 -0.227497 )
    ( 3.5096 0.0210238 -0.221266 )
    ( 3.51036 0.0211701 -0.220809 )
    ( 3.51141 0.0213561 -0.220162 )
    ( 3.51349 0.0216665 -0.218829 )
    ( 3.50932 0.020966 -0.221437 )
    ( 3.50294 0.0233699 -0.212804 )
    ( 3.50279 0.0233698 -0.212925 )
    ( 3.51589 0.0212787 -0.204263 )
    ( 3.51492 0.0215335 -0.204747 )
    ( 3.51205 0.0222226 -0.206324 )
    ( 3.50969 0.0226974 -0.207782 )
    ( 3.50738 0.0230586 -0.209355 )
    ( 3.50513 0.0232884 -0.211035 )
    ( 3.50265 0.0233688 -0.213046 )
    ( 3.49954 0.0231543 -0.215779 )
    ( 3.49791 0.0228703 -0.217317 )
    ( 3.50122 0.0233183 -0.214272 )
    ( 3.50236 0.0233647 -0.213289 )
    ( 3.49513 0.0220418 -0.220113 )
    ( 3.48821 0.0218487 -0.220456 )
    ( 3.497 0.022652 -0.218204 )
    ( 3.53034 0.082885 -0.305371 )
    ( 3.53034 0.0828832 -0.305373 )
    ( 3.53034 0.0828731 -0.305382 )
    ( 3.53041 0.0829039 -0.305354 )
    ( 3.53032 0.0828741 -0.305381 )
    ( 3.53044 0.0829316 -0.30533 )
    ( 3.53058 0.0830857 -0.305192 )
    ( 3.53066 0.0832164 -0.305076 )
    ( 3.53074 0.0833544 -0.304952 )
    ( 3.53078 0.0834239 -0.30489 )
    ( 3.53047 0.0829611 -0.305303 )
    ( 3.5303 0.0828851 -0.305371 )
    ( 3.53027 0.0829323 -0.305329 )
    ( 3.53025 0.0830063 -0.305263 )
    ( 3.53024 0.0831566 -0.305129 )
    ( 3.53025 0.0833065 -0.304995 )
    ( 3.53027 0.0834183 -0.304895 )
    ( 3.53026 0.0833625 -0.304945 )
    ( 3.53032 0.0836386 -0.304697 )
    ( 3.53029 0.0835287 -0.304796 )
    ( 3.53092 0.0837423 -0.304603 )
    ( 3.53096 0.0838487 -0.304507 )
    ( 3.531 0.083955 -0.304411 )
    ( 3.53104 0.0840626 -0.304313 )
    ( 3.53108 0.0841715 -0.304214 )
    ( 3.53083 0.083529 -0.304796 )
    ( 3.53087 0.0836352 -0.3047 )
    ( 3.53111 0.0842971 -0.3041 )
    ( 3.53114 0.0844233 -0.303984 )
    ( 3.53117 0.0846161 -0.303808 )
    ( 3.53118 0.0847276 -0.303705 )
    ( 3.53119 0.0848432 -0.303599 )
    ( 3.5312 0.0849587 -0.303492 )
    ( 3.53033 0.0836933 -0.304647 )
    ( 3.53037 0.083816 -0.304537 )
    ( 3.53041 0.0839387 -0.304426 )
    ( 3.53045 0.0840614 -0.304314 )
    ( 3.53049 0.0841826 -0.304204 )
    ( 3.53054 0.0842893 -0.304107 )
    ( 3.53061 0.0844473 -0.303962 )
    ( 3.53096 0.0850054 -0.303449 )
    ( 3.53088 0.084906 -0.303541 )
    ( 3.53069 0.0846022 -0.30382 )
    ( 3.53075 0.0847033 -0.303728 )
    ( 3.53081 0.0848046 -0.303634 )
    ( 3.4867 -0.0187578 -0.24831 )
    ( 3.48672 -0.0184911 -0.247569 )
    ( 3.48676 -0.0199729 -0.252166 )
    ( 3.48673 -0.0197497 -0.251381 )
    ( 3.48705 -0.0207275 -0.254446 )
    ( 3.48702 -0.0206344 -0.254051 )
    ( 3.48786 -0.0218206 -0.2612 )
    ( 3.4878 -0.0217824 -0.260798 )
    ( 3.4891 -0.0219575 -0.267589 )
    ( 3.48901 -0.0219753 -0.267192 )
    ( 3.48947 -0.021852 -0.269158 )
    ( 3.48938 -0.0218835 -0.268767 )
    ( 3.49072 -0.0212014 -0.273823 )
    ( 3.49061 -0.0212749 -0.273437 )
    ( 3.49039 -0.0214113 -0.272663 )
    ( 3.49028 -0.0214743 -0.272275 )
    ( 3.49007 -0.0215897 -0.271498 )
    ( 3.48997 -0.0216421 -0.271108 )
    ( 3.49107 -0.0209615 -0.274972 )
    ( 3.49095 -0.0210447 -0.274591 )
    ( 3.49264 -0.01958 -0.279819 )
    ( 3.49252 -0.0197056 -0.279454 )
    ( 3.49239 -0.0198279 -0.279088 )
    ( 3.49214 -0.0200626 -0.278352 )
    ( 3.49202 -0.020175 -0.277983 )
    ( 3.4938 -0.0183177 -0.28303 )
    ( 3.49367 -0.0184704 -0.282678 )
    ( 3.49328 -0.0189096 -0.281615 )
    ( 3.49315 -0.0190498 -0.281259 )
    ( 3.49302 -0.0191867 -0.280902 )
    ( 3.4929 -0.0193205 -0.280543 )
    ( 3.49277 -0.0194511 -0.280184 )
    ( 3.49474 -0.017163 -0.285463 )
    ( 3.49461 -0.0173371 -0.285119 )
    ( 3.49447 -0.0175081 -0.284774 )
    ( 3.4942 -0.0178412 -0.28408 )
    ( 3.49407 -0.0180031 -0.283731 )
    ( 3.49556 -0.0160626 -0.287489 )
    ( 3.49543 -0.016253 -0.287154 )
    ( 3.49529 -0.0164405 -0.286819 )
    ( 3.49515 -0.0166252 -0.286482 )
    ( 3.49502 -0.016807 -0.286144 )
    ( 3.49695 -0.0140269 -0.290727 )
    ( 3.49681 -0.0142415 -0.29041 )
    ( 3.49667 -0.0144535 -0.290092 )
    ( 3.49821 -0.0120088 -0.29348 )
    ( 3.49807 -0.0122421 -0.29318 )
    ( 3.49793 -0.0124732 -0.292879 )
    ( 3.49779 -0.0127019 -0.292576 )
    ( 3.49765 -0.0129283 -0.292272 )
    ( 3.49751 -0.0131522 -0.291966 )
    ( 3.4992 -0.0103122 -0.29554 )
    ( 3.49906 -0.0105612 -0.29525 )
    ( 3.49892 -0.010808 -0.294958 )
    ( 3.49878 -0.0110526 -0.294665 )
    ( 3.50049 -0.00797873 -0.298081 )
    ( 3.50034 -0.00824618 -0.297804 )
    ( 3.49991 -0.00903639 -0.296966 )
    ( 3.49977 -0.00929568 -0.296684 )
    ( 3.50147 -0.00607805 -0.29995 )
    ( 3.50133 -0.00635525 -0.299688 )
    ( 3.50119 -0.00663058 -0.299424 )
    ( 3.50105 -0.00690403 -0.299158 )
    ( 3.50371 -0.00145463 -0.303907 )
    ( 3.50357 -0.00175566 -0.303672 )
    ( 3.50343 -0.00205502 -0.303435 )
    ( 3.50329 -0.0023527 -0.303196 )
    ( 3.50315 -0.0026487 -0.302956 )
    ( 3.50301 -0.002943 -0.302715 )
    ( 3.50287 -0.0032356 -0.302472 )
    ( 3.50274 -0.00352649 -0.302227 )
    ( 3.50606 0.00388748 -0.307659 )
    ( 3.50592 0.00356229 -0.307452 )
    ( 3.50578 0.00323859 -0.307243 )
    ( 3.50565 0.0029164 -0.307033 )
    ( 3.50551 0.00259572 -0.306821 )
    ( 3.50537 0.00227656 -0.306608 )
    ( 3.50524 0.00195892 -0.306392 )
    ( 3.5051 0.00164283 -0.306176 )
    ( 3.50496 0.00132828 -0.305958 )
    ( 3.50673 0.00551878 -0.308661 )
    ( 3.5066 0.00518966 -0.308464 )
    ( 3.50646 0.00486196 -0.308265 )
    ( 3.50633 0.00453569 -0.308065 )
    ( 3.50619 0.00421086 -0.307863 )
    ( 3.50819 0.00919888 -0.310708 )
    ( 3.50806 0.00885873 -0.31053 )
    ( 3.50793 0.00851988 -0.310351 )
    ( 3.5078 0.00818234 -0.31017 )
    ( 3.50753 0.00751124 -0.309804 )
    ( 3.5074 0.00717769 -0.309619 )
    ( 3.50727 0.00684548 -0.309432 )
    ( 3.50924 0.0119662 -0.31207 )
    ( 3.50911 0.0116159 -0.311905 )
    ( 3.50898 0.0112668 -0.311739 )
    ( 3.50885 0.010919 -0.311571 )
    ( 3.50833 0.00954033 -0.310884 )
    ( 3.5103 0.0148815 -0.313355 )
    ( 3.51017 0.0145126 -0.3132 )
    ( 3.50977 0.0134136 -0.312726 )
    ( 3.50964 0.0130498 -0.312565 )
    ( 3.50937 0.0123261 -0.312237 )
    ( 3.51215 0.0202396 -0.315346 )
    ( 3.51203 0.0198726 -0.315224 )
    ( 3.51191 0.0195065 -0.3151 )
    ( 3.51178 0.0191416 -0.314975 )
    ( 3.51166 0.0187776 -0.314848 )
    ( 3.51154 0.0184148 -0.314719 )
    ( 3.51141 0.018053 -0.314589 )
    ( 3.51129 0.0176923 -0.314457 )
    ( 3.51325 0.0235752 -0.31636 )
    ( 3.51313 0.0232008 -0.316254 )
    ( 3.51264 0.021713 -0.315814 )
    ( 3.51252 0.0213436 -0.3157 )
    ( 3.5124 0.0209752 -0.315584 )
    ( 3.51374 0.0250827 -0.316764 )
    ( 3.51361 0.0247044 -0.316666 )
    ( 3.51349 0.024327 -0.316566 )
    ( 3.51337 0.0239506 -0.316464 )
    ( 3.51504 0.029273 -0.317719 )
    ( 3.51492 0.0288893 -0.317641 )
    ( 3.51469 0.0281245 -0.317482 )
    ( 3.51457 0.0277434 -0.317399 )
    ( 3.51445 0.0273632 -0.317314 )
    ( 3.51433 0.026984 -0.317228 )
    ( 3.51422 0.0266056 -0.31714 )
    ( 3.51608 0.0327218 -0.318322 )
    ( 3.51597 0.0323359 -0.318263 )
    ( 3.51562 0.0311831 -0.318073 )
    ( 3.51551 0.0308005 -0.318006 )
    ( 3.51698 0.0358024 -0.318726 )
    ( 3.51687 0.0354146 -0.318682 )
    ( 3.51676 0.0350276 -0.318636 )
    ( 3.51665 0.0346414 -0.318588 )
    ( 3.51653 0.0342559 -0.318539 )
    ( 3.51642 0.0338713 -0.318488 )
    ( 3.51631 0.0334873 -0.318434 )
    ( 3.51619 0.0331042 -0.318379 )
    ( 3.51766 0.0381448 -0.318948 )
    ( 3.51755 0.0377525 -0.318915 )
    ( 3.51743 0.037361 -0.318881 )
    ( 3.5171 0.0361909 -0.318768 )
    ( 3.51854 0.0412921 -0.319129 )
    ( 3.51843 0.0408968 -0.319114 )
    ( 3.51832 0.0405023 -0.319096 )
    ( 3.51821 0.0401085 -0.319077 )
    ( 3.5181 0.0397155 -0.319055 )
    ( 3.51799 0.0393232 -0.319031 )
    ( 3.51788 0.0389316 -0.319006 )
    ( 3.5193 0.0440344 -0.319177 )
    ( 3.5192 0.0436431 -0.319176 )
    ( 3.51887 0.0424733 -0.319162 )
    ( 3.51877 0.0420848 -0.319154 )
    ( 3.51973 0.0455993 -0.319156 )
    ( 3.51963 0.0452124 -0.319165 )
    ( 3.521 0.0502914 -0.318884 )
    ( 3.5209 0.0498971 -0.318919 )
    ( 3.52079 0.0495033 -0.318952 )
    ( 3.52068 0.0491102 -0.318983 )
    ( 3.52058 0.0487176 -0.319011 )
    ( 3.52215 0.0546057 -0.318338 )
    ( 3.52205 0.0542131 -0.3184 )
    ( 3.52194 0.053821 -0.318459 )
    ( 3.52184 0.0534292 -0.318516 )
    ( 3.52174 0.053038 -0.31857 )
    ( 3.52163 0.0526472 -0.318622 )
    ( 3.52142 0.051867 -0.318718 )
    ( 3.52132 0.0514778 -0.318763 )
    ( 3.52266 0.0565247 -0.317999 )
    ( 3.52256 0.0561403 -0.318072 )
    ( 3.52378 0.060724 -0.317032 )
    ( 3.52368 0.0603432 -0.317133 )
    ( 3.52348 0.0595818 -0.317327 )
    ( 3.52338 0.0592011 -0.317419 )
    ( 3.52317 0.0584402 -0.317597 )
    ( 3.52307 0.0580599 -0.317682 )
    ( 3.52297 0.0576798 -0.317764 )
    ( 3.52409 0.0618659 -0.316712 )
    ( 3.52399 0.0614853 -0.316821 )
    ( 3.52389 0.0611047 -0.316928 )
    ( 3.53026 0.0829578 -0.305306 )
    ( 3.53028 0.0829063 -0.305352 )
    ( 3.53025 0.083009 -0.30526 )
    ( 3.53024 0.0830633 -0.305212 )
    ( 3.53024 0.0831142 -0.305167 )
    ( 3.52958 0.0814267 -0.306559 )
    ( 3.52954 0.081264 -0.306699 )
    ( 3.53024 0.0831668 -0.30512 )
    ( 3.53025 0.0832194 -0.305073 )
    ( 3.52965 0.0817503 -0.30628 )
    ( 3.52961 0.0815888 -0.30642 )
    ( 3.53025 0.0832718 -0.305026 )
    ( 3.52969 0.0819113 -0.30614 )
    ( 3.53026 0.0833241 -0.30498 )
    ( 3.52973 0.0820718 -0.306001 )
    ( 3.53026 0.0833763 -0.304933 )
    ( 3.52977 0.0822253 -0.305867 )
    ( 3.53027 0.0834262 -0.304888 )
    ( 3.52982 0.0823915 -0.305721 )
    ( 3.53028 0.0834803 -0.30484 )
    ( 3.52987 0.0825507 -0.305581 )
    ( 3.53029 0.0835321 -0.304793 )
    ( 3.52991 0.0827094 -0.305442 )
    ( 3.53031 0.0835838 -0.304747 )
    ( 3.52996 0.0828617 -0.305307 )
    ( 3.53032 0.0836333 -0.304702 )
    ( 3.53001 0.0830254 -0.305161 )
    ( 3.53033 0.0836866 -0.304654 )
    ( 3.53006 0.0831827 -0.305021 )
    ( 3.53035 0.0837377 -0.304608 )
    ( 3.53012 0.0833395 -0.304881 )
    ( 3.53036 0.0837886 -0.304562 )
    ( 3.53017 0.083496 -0.304741 )
    ( 3.53038 0.0838394 -0.304516 )
    ( 3.53022 0.0836523 -0.3046 )
    ( 3.5304 0.0838903 -0.30447 )
    ( 3.53028 0.0838085 -0.304459 )
    ( 3.53041 0.0839413 -0.304424 )
    ( 3.53033 0.0839643 -0.304318 )
    ( 3.53043 0.0839923 -0.304378 )
    ( 3.53038 0.0841196 -0.304177 )
    ( 3.53044 0.0840432 -0.304332 )
    ( 3.53044 0.0842745 -0.304035 )
    ( 3.53046 0.0840938 -0.304286 )
    ( 3.53049 0.0844246 -0.303898 )
    ( 3.53048 0.0841428 -0.304241 )
    ( 3.53055 0.0845824 -0.303753 )
    ( 3.5305 0.0841942 -0.304194 )
    ( 3.53061 0.0847334 -0.303614 )
    ( 3.53052 0.0842433 -0.304149 )
    ( 3.53068 0.0848886 -0.303471 )
    ( 3.53054 0.0842938 -0.304103 )
    ( 3.53074 0.0850409 -0.303329 )
    ( 3.53056 0.0843433 -0.304058 )
    ( 3.5308 0.0851927 -0.303188 )
    ( 3.53058 0.0843925 -0.304013 )
    ( 3.53087 0.0853439 -0.303047 )
    ( 3.53061 0.0844415 -0.303968 )
    ( 3.53093 0.0854946 -0.302906 )
    ( 3.53063 0.0844902 -0.303924 )
    ( 3.531 0.0856448 -0.302765 )
    ( 3.53066 0.0845386 -0.303879 )
    ( 3.53107 0.0857942 -0.302624 )
    ( 3.53068 0.0845867 -0.303835 )
    ( 3.53114 0.0859431 -0.302483 )
    ( 3.53071 0.0846345 -0.303791 )
    ( 3.53121 0.0860914 -0.302342 )
    ( 3.53074 0.0846821 -0.303747 )
    ( 3.53129 0.086239 -0.302201 )
    ( 3.53077 0.0847293 -0.303704 )
    ( 3.53136 0.0863821 -0.302065 )
    ( 3.53079 0.084775 -0.303662 )
    ( 3.53083 0.0848215 -0.303619 )
    ( 3.53151 0.0866785 -0.30178 )
    ( 3.53144 0.0865282 -0.301925 )
    ( 3.53086 0.0848693 -0.303574 )
    ( 3.53159 0.0868241 -0.30164 )
    ( 3.53089 0.0849153 -0.303532 )
    ( 3.53092 0.0849609 -0.30349 )
    ( 3.5313 0.0860055 -0.302489 )
    ( 3.53094 0.0849835 -0.303469 )
    ( 3.48853 -0.0133685 -0.236299 )
    ( 3.48915 -0.0122944 -0.234381 )
    ( 3.48699 -0.0179643 -0.245679 )
    ( 3.4871 -0.0174222 -0.244365 )
    ( 3.48689 -0.0192133 -0.249023 )
    ( 3.48693 -0.0184832 -0.247006 )
    ( 3.48981 -0.0111843 -0.232503 )
    ( 3.48701 -0.0204459 -0.253159 )
    ( 3.48692 -0.0198699 -0.251075 )
    ( 3.48829 -0.0220019 -0.263369 )
    ( 3.48801 -0.0219004 -0.261731 )
    ( 3.48775 -0.0217425 -0.2601 )
    ( 3.49199 -0.0203021 -0.27768 )
    ( 3.49161 -0.0206215 -0.276526 )
    ( 3.49125 -0.0209086 -0.275366 )
    ( 3.49276 -0.0195671 -0.279965 )
    ( 3.49237 -0.0199506 -0.278827 )
    ( 3.49482 -0.0171807 -0.285506 )
    ( 3.4944 -0.0177193 -0.284419 )
    ( 3.49613 -0.015387 -0.288693 )
    ( 3.49569 -0.016014 -0.287643 )
    ( 3.50071 -0.00770334 -0.29841 )
    ( 3.50025 -0.00857735 -0.297506 )
    ( 3.49978 -0.00943017 -0.296586 )
    ( 3.49658 -0.0147323 -0.28973 )
    ( 3.49703 -0.0140505 -0.290753 )
    ( 3.49526 -0.0166124 -0.28658 )
    ( 3.49932 -0.0102604 -0.295651 )
    ( 3.49886 -0.0110668 -0.294701 )
    ( 3.49748 -0.0133423 -0.291762 )
    ( 3.49356 -0.0187054 -0.282213 )
    ( 3.49316 -0.019152 -0.281094 )
    ( 3.4909 -0.0211632 -0.274199 )
    ( 3.49398 -0.0182277 -0.283322 )
    ( 3.49794 -0.0126085 -0.292757 )
    ( 3.49839 -0.0118498 -0.293737 )
    ( 3.50118 -0.0068076 -0.299298 )
    ( 3.50165 -0.00589105 -0.300171 )
    ( 3.50306 -0.00301866 -0.302695 )
    ( 3.50259 -0.00399694 -0.301869 )
    ( 3.504 -0.00100059 -0.304298 )
    ( 3.50353 -0.00201983 -0.303504 )
    ( 3.50212 -0.00495406 -0.301028 )
    ( 3.50446 3.83165E-5 -0.305074 )
    ( 3.50818 0.00898037 -0.310627 )
    ( 3.50772 0.00780334 -0.309999 )
    ( 3.50909 0.0113823 -0.311826 )
    ( 3.50863 0.0101734 -0.311237 )
    ( 3.50726 0.00664262 -0.309351 )
    ( 3.50493 0.00109584 -0.305833 )
    ( 3.50587 0.00326281 -0.307296 )
    ( 3.5054 0.00217093 -0.306574 )
    ( 3.50679 0.0054985 -0.308684 )
    ( 3.50633 0.00437129 -0.307999 )
    ( 3.50954 0.0126066 -0.312396 )
    ( 3.50999 0.013846 -0.312946 )
    ( 3.51266 0.0216041 -0.315808 )
    ( 3.51222 0.0202761 -0.315385 )
    ( 3.5131 0.0229455 -0.316207 )
    ( 3.51354 0.0243 -0.316584 )
    ( 3.51738 0.0370302 -0.318871 )
    ( 3.51696 0.0355779 -0.318721 )
    ( 3.51654 0.0341254 -0.318543 )
    ( 3.5178 0.0385085 -0.318994 )
    ( 3.5203 0.0475567 -0.319097 )
    ( 3.51988 0.0460225 -0.319161 )
    ( 3.52072 0.0491068 -0.318997 )
    ( 3.51178 0.0189618 -0.314941 )
    ( 3.52422 0.0622479 -0.316607 )
    ( 3.52365 0.06013 -0.317197 )
    ( 3.52992 0.0817256 -0.306365 )
    ( 3.5295 0.0804741 -0.30737 )
    ( 3.52113 0.0506625 -0.318862 )
    ( 3.52323 0.0585326 -0.317586 )
    ( 3.5228 0.0569417 -0.317927 )
    ( 3.53032 0.0828738 -0.30538 )
    ( 3.51441 0.0270503 -0.317268 )
    ( 3.51397 0.0256695 -0.316938 )
    ( 3.51612 0.0326854 -0.318339 )
    ( 3.51133 0.0176538 -0.314471 )
    ( 3.51089 0.0163749 -0.313986 )
    ( 3.51044 0.0151105 -0.313479 )
    ( 3.51526 0.0298442 -0.317853 )
    ( 3.51484 0.0284417 -0.317573 )
    ( 3.51569 0.0312585 -0.318108 )
    ( 3.51905 0.0429848 -0.319188 )
    ( 3.51864 0.0414819 -0.319154 )
    ( 3.52155 0.0522225 -0.318688 )
    ( 3.52197 0.0537877 -0.318476 )
    ( 3.52238 0.0553602 -0.318223 )
    ( 3.51947 0.0444984 -0.319191 )
    ( 3.52708 0.0725951 -0.312405 )
    ( 3.52651 0.0705821 -0.313407 )
    ( 3.52536 0.066457 -0.315172 )
    ( 3.52479 0.0643595 -0.315932 )
    ( 3.52593 0.0685336 -0.31433 )
    ( 3.52866 0.0778498 -0.309273 )
    ( 3.52824 0.0764815 -0.310169 )
    ( 3.52908 0.0791815 -0.30834 )
    ( 3.5244 0.0630064 -0.316368 )
    ( 3.52766 0.0745644 -0.311325 )
    ( 3.51822 0.0399975 -0.319089 )
    ( 3.48946 -0.0107972 -0.232701 )
    ( 3.48935 -0.0103636 -0.232918 )
    ( 3.4896 -0.0110008 -0.232597 )
    ( 3.48938 -0.00991503 -0.233132 )
    ( 3.48954 -0.00930721 -0.233408 )
    ( 3.48976 -0.00871948 -0.233655 )
    ( 3.48989 -0.00842949 -0.233771 )
    ( 3.49003 -0.0081421 -0.233881 )
    ( 3.49075 -0.00685751 -0.234323 )
    ( 3.49337 -0.00318191 -0.235146 )
    ( 3.49424 -0.00212746 -0.235265 )
    ( 3.49156 -0.00560689 -0.234675 )
    ( 3.49244 -0.00438241 -0.234947 )
    ( 3.49513 -0.00109335 -0.235332 )
    ( 3.49605 -8.04322E-5 -0.235351 )
    ( 3.50279 0.00615381 -0.234374 )
    ( 3.50294 0.00626896 -0.234337 )
    ( 3.50236 0.00580578 -0.234482 )
    ( 3.50265 0.00603827 -0.234411 )
    ( 3.50122 0.00485605 -0.234742 )
    ( 3.50738 0.00945266 -0.232975 )
    ( 3.50853 0.010163 -0.23257 )
    ( 3.50625 0.00870665 -0.233357 )
    ( 3.50403 0.00711251 -0.23404 )
    ( 3.50513 0.007926 -0.233713 )
    ( 3.49791 0.0018219 -0.235256 )
    ( 3.49954 0.00337247 -0.235051 )
    ( 3.497 9.10841E-4 -0.235323 )
    ( 3.50969 0.0108373 -0.232145 )
    ( 3.51956 0.0149589 -0.228232 )
    ( 3.52142 0.0154457 -0.227493 )
    ( 3.51589 0.0137454 -0.229709 )
    ( 3.51772 0.0143922 -0.228973 )
    ( 3.51492 0.0133635 -0.230101 )
    ( 3.52698 0.0164011 -0.225443 )
    ( 3.5282 0.0165115 -0.225044 )
    ( 3.52577 0.016257 -0.22586 )
    ( 3.52392 0.0159667 -0.226535 )
    ( 3.52454 0.0160725 -0.226307 )
    ( 3.52331 0.0158523 -0.226767 )
    ( 3.51348 0.0127462 -0.23068 )
    ( 3.51205 0.0120772 -0.231243 )
    ( 3.51086 0.0114753 -0.231702 )
    ( 3.52942 0.0165899 -0.224665 )
    ( 3.53064 0.0166388 -0.224303 )
    ( 3.53106 0.0166491 -0.224184 )
    ( 3.53149 0.0166564 -0.224065 )
    ( 3.53501 0.0166099 -0.223153 )
    ( 3.53729 0.0164943 -0.222617 )
    ( 3.53325 0.0166545 -0.223595 )
    ( 3.53802 0.016438 -0.222463 )
    ( 3.53778 0.0181359 -0.224166 )
    ( 3.53764 0.0190763 -0.225153 )
    ( 3.53677 0.0242059 -0.231201 )
    ( 3.53664 0.0248899 -0.232083 )
    ( 3.53653 0.0255694 -0.232972 )
    ( 3.53573 0.0309599 -0.240211 )
    ( 3.53565 0.0316359 -0.241111 )
    ( 3.5363 0.0269206 -0.234769 )
    ( 3.53609 0.0282673 -0.236584 )
    ( 3.53701 0.0228218 -0.229465 )
    ( 3.53559 0.0323149 -0.242007 )
    ( 3.53726 0.0214277 -0.227791 )
    ( 3.5359 0.0296128 -0.238402 )
    ( 3.5375 0.0200004 -0.226161 )
    ( 3.53536 0.0396121 -0.250842 )
    ( 3.5354 0.0407714 -0.252079 )
    ( 3.53533 0.0372453 -0.248166 )
    ( 3.53534 0.0384711 -0.249577 )
    ( 3.53546 0.0419493 -0.253285 )
    ( 3.53553 0.0431456 -0.254459 )
    ( 3.53561 0.0442824 -0.255527 )
    ( 3.5357 0.0454343 -0.256563 )
    ( 3.53536 0.0360403 -0.246728 )
    ( 3.53547 0.0336842 -0.243785 )
    ( 3.5354 0.0348542 -0.245266 )
    ( 3.53774 0.0636769 -0.268256 )
    ( 3.53787 0.0649187 -0.268837 )
    ( 3.53851 0.0821358 -0.276681 )
    ( 3.53844 0.0835896 -0.277455 )
    ( 3.53804 0.0667672 -0.269681 )
    ( 3.53681 0.0557674 -0.264083 )
    ( 3.53701 0.0574201 -0.265041 )
    ( 3.53721 0.0590761 -0.26595 )
    ( 3.53741 0.0607545 -0.266825 )
    ( 3.53592 0.0477803 -0.258537 )
    ( 3.53603 0.0489528 -0.25946 )
    ( 3.5376 0.0624302 -0.267658 )
    ( 3.53629 0.051328 -0.261206 )
    ( 3.53643 0.0525296 -0.262032 )
    ( 3.53616 0.0501355 -0.260349 )
    ( 3.53662 0.054144 -0.263084 )
    ( 3.53819 0.0685993 -0.270501 )
    ( 3.53831 0.0704124 -0.271302 )
    ( 3.53853 0.0753249 -0.273461 )
    ( 3.53857 0.0775352 -0.274456 )
    ( 3.53857 0.0791048 -0.275186 )
    ( 3.53841 0.0722038 -0.272088 )
    ( 3.53848 0.0737752 -0.272777 )
    ( 3.53855 0.0806396 -0.275926 )
    ( 3.53581 0.0466006 -0.257567 )
    ( 3.53147 0.0863915 -0.302107 )
    ( 3.53133 0.0860535 -0.302443 )
    ( 3.53171 0.0870415 -0.301429 )
    ( 3.53113 0.0854672 -0.303014 )
    ( 3.53801 0.0883577 -0.280452 )
    ( 3.53783 0.0895327 -0.281379 )
    ( 3.53743 0.0914081 -0.283212 )
    ( 3.53718 0.0921881 -0.284234 )
    ( 3.53764 0.0905156 -0.282264 )
    ( 3.53643 0.093425 -0.287023 )
    ( 3.53616 0.0935785 -0.287942 )
    ( 3.53588 0.0936214 -0.288913 )
    ( 3.53816 0.0871096 -0.279573 )
    ( 3.53532 0.093412 -0.290737 )
    ( 3.53689 0.0928292 -0.285344 )
    ( 3.53667 0.0931715 -0.286158 )
    ( 3.53412 0.092036 -0.294535 )
    ( 3.53375 0.0914368 -0.29565 )
    ( 3.53337 0.0907552 -0.296767 )
    ( 3.53299 0.0899965 -0.29788 )
    ( 3.53241 0.0887116 -0.299548 )
    ( 3.53181 0.0872732 -0.301188 )
    ( 3.53448 0.0925478 -0.293428 )
    ( 3.53491 0.0930625 -0.292051 )
    ( 3.53096 0.0850051 -0.303449 )
    ( 3.53832 0.0853949 -0.278488 )
    ( 3.5312 0.0849116 -0.303535 )
    ( 3.5312 0.0849236 -0.303524 )
    ( 3.53139 0.0854348 -0.303043 )
    ( 3.5312 0.0849357 -0.303513 )
    ( 3.53158 0.0859624 -0.30253 )
    ( 3.53157 0.0859385 -0.302553 )
    ( 3.5312 0.0849417 -0.303507 )
    ( 3.53129 0.0852133 -0.303254 )
    ( 3.53125 0.0850849 -0.303374 )
    ( 3.5313 0.0852209 -0.303247 )
    ( 3.5312 0.0849478 -0.303502 )
    ( 3.53139 0.0854889 -0.302992 )
    ( 3.5312 0.0849508 -0.303499 )
    ( 3.5312 0.0849538 -0.303496 )
    ( 3.53122 0.0850229 -0.303432 )
    ( 3.53125 0.0850917 -0.303368 )
    ( 3.5313 0.0852284 -0.30324 )
    ( 3.5312 0.0849553 -0.303495 )
    ( 3.53122 0.0850245 -0.303431 )
    ( 3.5312 0.0849568 -0.303493 )
    ( 3.53121 0.0849915 -0.303461 )
    ( 3.53125 0.0850951 -0.303365 )
    ( 3.53125 0.0850934 -0.303366 )
    ( 3.5312 0.0849749 -0.303477 )
    ( 3.53121 0.0849923 -0.303461 )
    ( 3.5312 0.0849575 -0.303493 )
    ( 3.5312 0.0849666 -0.303484 )
    ( 3.5312 0.0849753 -0.303476 )
    ( 3.5312 0.0849579 -0.303492 )
    ( 3.5312 0.0849581 -0.303492 )
    ( 3.5312 0.0849583 -0.303492 )
    ( 3.5312 0.0849757 -0.303476 )
    ( 3.5312 0.0849755 -0.303476 )
    ( 3.53121 0.0849927 -0.30346 )
    ( 3.53121 0.084993 -0.30346 )
    ( 3.53122 0.0850277 -0.303428 )
    ( 3.53122 0.0850269 -0.303428 )
    ( 3.5312 0.0849584 -0.303492 )
    ( 3.5312 0.0849607 -0.30349 )
    ( 3.5312 0.0849628 -0.303488 )
    ( 3.5312 0.0849585 -0.303492 )
    ( 3.5312 0.0849672 -0.303484 )
    ( 3.5312 0.0849759 -0.303476 )
    ( 3.53125 0.0850968 -0.303363 )
    ( 3.5313 0.0852322 -0.303236 )
    ( 3.53139 0.0854979 -0.302984 )
    ( 3.53159 0.0860101 -0.302485 )
    ( 3.53139 0.0854799 -0.303001 )
    ( 3.53158 0.0859862 -0.302508 )
    ( 3.53196 0.0869582 -0.301513 )
    ( 3.53194 0.086888 -0.301581 )
    ( 3.53119 0.0848634 -0.30358 )
    ( 3.53119 0.0848875 -0.303558 )
    ( 3.53156 0.0858908 -0.302598 )
    ( 3.53119 0.0848151 -0.303625 )
    ( 3.53155 0.0858432 -0.302643 )
    ( 3.53186 0.086607 -0.301852 )
    ( 3.53182 0.0864664 -0.301987 )
    ( 3.53119 0.0847669 -0.303669 )
    ( 3.53178 0.086325 -0.302123 )
    ( 3.53118 0.0847184 -0.303714 )
    ( 3.53174 0.086185 -0.302256 )
    ( 3.53118 0.0846704 -0.303758 )
    ( 3.53117 0.0846223 -0.303802 )
    ( 3.53169 0.0860442 -0.30239 )
    ( 3.53165 0.0859033 -0.302524 )
    ( 3.53117 0.0845741 -0.303847 )
    ( 3.53161 0.0857622 -0.302657 )
    ( 3.53116 0.084526 -0.303891 )
    ( 3.53115 0.084478 -0.303935 )
    ( 3.53156 0.0856209 -0.30279 )
    ( 3.53152 0.0854796 -0.302923 )
    ( 3.53114 0.08443 -0.303979 )
    ( 3.53113 0.084382 -0.304023 )
    ( 3.53147 0.085338 -0.303056 )
    ( 3.53112 0.0843342 -0.304066 )
    ( 3.53111 0.0842864 -0.30411 )
    ( 3.53143 0.0851964 -0.303188 )
    ( 3.53138 0.0850547 -0.30332 )
    ( 3.5311 0.0842388 -0.304154 )
    ( 3.53108 0.0841912 -0.304197 )
    ( 3.53133 0.0849129 -0.303451 )
    ( 3.53107 0.084144 -0.30424 )
    ( 3.53129 0.084771 -0.303583 )
    ( 3.53105 0.0840964 -0.304283 )
    ( 3.53119 0.084487 -0.303844 )
    ( 3.53104 0.084049 -0.304326 )
    ( 3.53102 0.0840018 -0.304369 )
    ( 3.531 0.0839549 -0.304412 )
    ( 3.53099 0.0839082 -0.304454 )
    ( 3.53097 0.0838617 -0.304496 )
    ( 3.53095 0.0838152 -0.304538 )
    ( 3.53093 0.0837686 -0.30458 )
    ( 3.53091 0.0837219 -0.304622 )
    ( 3.53089 0.0836749 -0.304665 )
    ( 3.53087 0.083628 -0.304707 )
    ( 3.53067 0.0830611 -0.305133 )
    ( 3.53085 0.0835813 -0.304749 )
    ( 3.53062 0.0829177 -0.30526 )
    ( 3.53083 0.083535 -0.304791 )
    ( 3.53081 0.0834888 -0.304832 )
    ( 3.53056 0.0827742 -0.305387 )
    ( 3.53051 0.0826308 -0.305514 )
    ( 3.53079 0.0834428 -0.304873 )
    ( 3.53045 0.0824873 -0.30564 )
    ( 3.53076 0.083397 -0.304914 )
    ( 3.5304 0.0823437 -0.305766 )
    ( 3.53034 0.082202 -0.30589 )
    ( 3.53074 0.083352 -0.304955 )
    ( 3.53072 0.0833061 -0.304996 )
    ( 3.53028 0.0820564 -0.306017 )
    ( 3.53069 0.0832608 -0.305036 )
    ( 3.53066 0.0832162 -0.305076 )
    ( 3.53022 0.0819123 -0.306143 )
    ( 3.53017 0.0817691 -0.306267 )
    ( 3.53011 0.0816256 -0.306391 )
    ( 3.53063 0.0831718 -0.305116 )
    ( 3.53004 0.0814821 -0.306514 )
    ( 3.53061 0.0831279 -0.305155 )
    ( 3.52998 0.0813388 -0.306638 )
    ( 3.53057 0.0830845 -0.305193 )
    ( 3.52992 0.0811957 -0.30676 )
    ( 3.53054 0.0830417 -0.305231 )
    ( 3.52985 0.0810529 -0.306882 )
    ( 3.53051 0.0829998 -0.305269 )
    ( 3.52978 0.0809106 -0.307003 )
    ( 3.53047 0.0829591 -0.305305 )
    ( 3.53043 0.0829222 -0.305337 )