# Wall heat-flux 
# Time           	patch            	min              	max              	integral         
1.0000000000e+00	pad1_to_default	4.8164321345e+03	1.4258845013e+04	1.3404206741e+02
1.0000000000e+00	pad1_to_disk	4.5401421866e+04	5.6056170262e+04	7.2457044609e+02
2.0000000000e+00	pad1_to_default	1.5575790769e+04	3.9776371630e+04	3.6724897349e+02
2.0000000000e+00	pad1_to_disk	8.0816718328e+04	1.0179577029e+05	1.3287422713e+03
3.0000000000e+00	pad1_to_default	1.5174734455e+04	3.3037012914e+04	3.5041524491e+02
3.0000000000e+00	pad1_to_disk	6.9712595585e+04	8.8720413216e+04	1.1555922040e+03
4.0000000000e+00	pad1_to_default	1.5621121525e+04	3.3334507845e+04	3.6505622716e+02
4.0000000000e+00	pad1_to_disk	6.7394974096e+04	8.6472361097e+04	1.1243451968e+03
5.0000000000e+00	pad1_to_default	1.6170990132e+04	3.2027029447e+04	3.8225315942e+02
5.0000000000e+00	pad1_to_disk	6.6048248525e+04	8.5829925379e+04	1.1119861778e+03
6.0000000000e+00	pad1_to_default	1.6617210600e+04	3.1956790555e+04	3.9785443819e+02
6.0000000000e+00	pad1_to_disk	6.4652779525e+04	8.5388498366e+04	1.1015106413e+03
7.0000000000e+00	pad1_to_default	1.6624315562e+04	3.2655865099e+04	4.0991591363e+02
7.0000000000e+00	pad1_to_disk	6.3304741936e+04	8.5105869847e+04	1.0924216719e+03
8.0000000000e+00	pad1_to_default	1.6564392267e+04	3.3852300672e+04	4.1939429210e+02
8.0000000000e+00	pad1_to_disk	6.2023050421e+04	8.4971268641e+04	1.0844007237e+03
9.0000000000e+00	pad1_to_default	1.6136489035e+04	3.6357339119e+04	4.2691869271e+02
9.0000000000e+00	pad1_to_disk	6.0530224597e+04	8.4936129144e+04	1.0773234030e+03
1.0000000000e+01	pad1_to_default	1.6328097587e+04	3.8968384694e+04	4.3278542081e+02
1.0000000000e+01	pad1_to_disk	5.8654781257e+04	8.4911175276e+04	1.0708338268e+03
1.1000000000e+01	pad1_to_default	1.5586237279e+04	4.1455336201e+04	4.3857752974e+02
1.1000000000e+01	pad1_to_disk	5.6984037108e+04	8.4824458527e+04	1.0645534220e+03
1.2000000000e+01	pad1_to_default	1.4247136907e+04	4.3624620718e+04	4.4427266386e+02
1.2000000000e+01	pad1_to_disk	5.5634885948e+04	8.4642013061e+04	1.0584628753e+03
1.3000000000e+01	pad1_to_default	1.5533828216e+04	4.5211519526e+04	4.4992735268e+02
1.3000000000e+01	pad1_to_disk	5.4665984704e+04	8.4204770087e+04	1.0524990698e+03
1.4000000000e+01	pad1_to_default	1.5233322944e+04	4.5918060415e+04	4.5627585468e+02
1.4000000000e+01	pad1_to_disk	5.4004758479e+04	8.3483067092e+04	1.0461451211e+03
1.5000000000e+01	pad1_to_default	1.4791653057e+04	4.5780215663e+04	4.6391034872e+02
1.5000000000e+01	pad1_to_disk	5.3661693024e+04	8.2678015577e+04	1.0386030374e+03
1.6000000000e+01	pad1_to_default	1.4374379200e+04	4.5019863467e+04	4.7124035241e+02
1.6000000000e+01	pad1_to_disk	5.3557378899e+04	8.1940536288e+04	1.0306034204e+03
1.7000000000e+01	pad1_to_default	1.4368780628e+04	4.4350563772e+04	4.7751625026e+02
1.7000000000e+01	pad1_to_disk	5.3699438575e+04	8.1457350145e+04	1.0245742887e+03
1.8000000000e+01	pad1_to_default	1.4148012013e+04	4.4272263156e+04	4.8241025685e+02
1.8000000000e+01	pad1_to_disk	5.3871617678e+04	8.1256739957e+04	1.0193636341e+03
1.9000000000e+01	pad1_to_default	1.3741803439e+04	4.4533962126e+04	4.8697974101e+02
1.9000000000e+01	pad1_to_disk	5.4091793659e+04	8.1057664311e+04	1.0146312023e+03
2.0000000000e+01	pad1_to_default	1.3887925627e+04	4.4587162311e+04	4.9173627271e+02
2.0000000000e+01	pad1_to_disk	5.4359564435e+04	8.0838655705e+04	1.0099230305e+03
2.1000000000e+01	pad1_to_default	1.3804177703e+04	4.4303105500e+04	4.9565016535e+02
2.1000000000e+01	pad1_to_disk	5.4651309866e+04	8.0702291273e+04	1.0058300145e+03
2.2000000000e+01	pad1_to_default	1.3475295837e+04	4.3992435807e+04	4.9881149360e+02
2.2000000000e+01	pad1_to_disk	5.4922672999e+04	8.0607788280e+04	1.0023716112e+03
2.3000000000e+01	pad1_to_default	1.3982494261e+04	4.3922350786e+04	5.0146521586e+02
2.3000000000e+01	pad1_to_disk	5.5153831982e+04	8.0520512764e+04	9.9941253048e+02
2.4000000000e+01	pad1_to_default	1.3329868495e+04	4.4518478295e+04	5.0336115983e+02
2.4000000000e+01	pad1_to_disk	5.5370554630e+04	8.0442581083e+04	9.9724213993e+02
2.5000000000e+01	pad1_to_default	1.3581473453e+04	4.4944258921e+04	5.0481934321e+02
2.5000000000e+01	pad1_to_disk	5.5578810611e+04	8.0346526306e+04	9.9549595327e+02
2.6000000000e+01	pad1_to_default	1.3795183011e+04	4.5200209642e+04	5.0620169500e+02
2.6000000000e+01	pad1_to_disk	5.5787075861e+04	8.0212818686e+04	9.9400120863e+02
2.7000000000e+01	pad1_to_default	1.3839500190e+04	4.5291277862e+04	5.0745936835e+02
2.7000000000e+01	pad1_to_disk	5.5986616557e+04	8.0050555246e+04	9.9268849302e+02
2.8000000000e+01	pad1_to_default	1.3774120822e+04	4.5287692407e+04	5.0859024356e+02
2.8000000000e+01	pad1_to_disk	5.6169592705e+04	7.9883409576e+04	9.9152284716e+02
2.9000000000e+01	pad1_to_default	1.3798097190e+04	4.5247669435e+04	5.0973582076e+02
2.9000000000e+01	pad1_to_disk	5.6334578218e+04	7.9718861210e+04	9.9040124797e+02
3.0000000000e+01	pad1_to_default	1.4333237743e+04	4.5193339723e+04	5.1084934136e+02
3.0000000000e+01	pad1_to_disk	5.6483240320e+04	7.9543879637e+04	9.8931484058e+02
3.1000000000e+01	pad1_to_default	1.4165248306e+04	4.5116750021e+04	5.1187613464e+02
3.1000000000e+01	pad1_to_disk	5.6624174305e+04	7.9346142419e+04	9.8831686336e+02
3.2000000000e+01	pad1_to_default	1.4377791156e+04	4.5011851801e+04	5.1282152788e+02
3.2000000000e+01	pad1_to_disk	5.6763283830e+04	7.9121420492e+04	9.8740746377e+02
3.3000000000e+01	pad1_to_default	1.4633984833e+04	4.4876466163e+04	5.1362667895e+02
3.3000000000e+01	pad1_to_disk	5.6905413158e+04	7.8869063865e+04	9.8661202497e+02
3.4000000000e+01	pad1_to_default	1.4982528662e+04	4.4726476931e+04	5.1424099519e+02
3.4000000000e+01	pad1_to_disk	5.7051974726e+04	7.8584862171e+04	9.8597973543e+02
3.5000000000e+01	pad1_to_default	1.5161691407e+04	4.4563874756e+04	5.1466686797e+02
3.5000000000e+01	pad1_to_disk	5.7202186612e+04	7.8266680198e+04	9.8553760152e+02
3.6000000000e+01	pad1_to_default	1.5191009128e+04	4.4394462182e+04	5.1493783091e+02
3.6000000000e+01	pad1_to_disk	5.7350674981e+04	7.7939780174e+04	9.8524620495e+02
3.7000000000e+01	pad1_to_default	1.5022649123e+04	4.4215473470e+04	5.1511525355e+02
3.7000000000e+01	pad1_to_disk	5.7494728381e+04	7.7706034711e+04	9.8505977743e+02
3.8000000000e+01	pad1_to_default	1.4916338817e+04	4.4033924631e+04	5.1523364894e+02
3.8000000000e+01	pad1_to_disk	5.7629887707e+04	7.7437794317e+04	9.8492836910e+02
3.9000000000e+01	pad1_to_default	1.4854080577e+04	4.3847407538e+04	5.1532639659e+02
3.9000000000e+01	pad1_to_disk	5.7755059030e+04	7.7347695835e+04	9.8482408533e+02
4.0000000000e+01	pad1_to_default	1.4771818793e+04	4.3665573114e+04	5.1544171122e+02
4.0000000000e+01	pad1_to_disk	5.7868064141e+04	7.7648349431e+04	9.8470282801e+02
4.1000000000e+01	pad1_to_default	1.4739866148e+04	4.3482943638e+04	5.1558270017e+02
4.1000000000e+01	pad1_to_disk	5.7969100496e+04	7.7911319501e+04	9.8455693420e+02
4.2000000000e+01	pad1_to_default	1.4744794679e+04	4.3307799168e+04	5.1574811672e+02
4.2000000000e+01	pad1_to_disk	5.8057303479e+04	7.8137333793e+04	9.8437187434e+02
4.3000000000e+01	pad1_to_default	1.4756239150e+04	4.3139275054e+04	5.1590949160e+02
4.3000000000e+01	pad1_to_disk	5.8134921190e+04	7.8324311970e+04	9.8418530004e+02
4.4000000000e+01	pad1_to_default	1.4758237722e+04	4.2982431879e+04	5.1605794594e+02
4.4000000000e+01	pad1_to_disk	5.8202410863e+04	7.8470482634e+04	9.8400512512e+02
4.5000000000e+01	pad1_to_default	1.4747813525e+04	4.2831773070e+04	5.1622348868e+02
4.5000000000e+01	pad1_to_disk	5.8261880432e+04	7.8574005663e+04	9.8381839997e+02
4.6000000000e+01	pad1_to_default	1.4758917716e+04	4.2691122012e+04	5.1635601031e+02
4.6000000000e+01	pad1_to_disk	5.8317092083e+04	7.8646338222e+04	9.8365796259e+02
4.7000000000e+01	pad1_to_default	1.4819106126e+04	4.2555864050e+04	5.1652622071e+02
4.7000000000e+01	pad1_to_disk	5.8366112917e+04	7.8690596087e+04	9.8348605577e+02
4.8000000000e+01	pad1_to_default	1.4932838845e+04	4.2430532156e+04	5.1662637693e+02
4.8000000000e+01	pad1_to_disk	5.8413103436e+04	7.8719210114e+04	9.8335889708e+02
4.9000000000e+01	pad1_to_default	1.5077845846e+04	4.2310635810e+04	5.1667127212e+02
4.9000000000e+01	pad1_to_disk	5.8459865835e+04	7.8736066267e+04	9.8328833468e+02
5.0000000000e+01	pad1_to_default	1.5203313517e+04	4.2200275685e+04	5.1668527960e+02
5.0000000000e+01	pad1_to_disk	5.8506759129e+04	7.8746687272e+04	9.8325954304e+02
