/*--------------------------------*- C++ -*----------------------------------*\
|       o        |                                                            |
|    o     o     |  HELYX (R) : Open-source CFD for Enterprise                |
|   o   O   o    |  Version : 4.4.0                                           |
|    o     o     |  ENGYS Ltd. <http://engys.com/>                            |
|       o        |                                                            |
\*---------------------------------------------------------------------------*/
FoamFile
{
    version     2.0;
    format      ascii;
    class       volScalarField;
    object      s;
}
// * * * * * * * * * * * * * * * * * * * * * * * * * * * * * * * * * * * * * //

sInlet          1;

dimensions      [0 0 0 0 0 0 0];  // s can represent any scalar
                                  // with any dimensional units
internalField   uniform 0;

boundaryField
{
    inlet
    {
        type            fixedValue;
        value           uniform $sInlet;
    }

    ".*"
    {
        type            zeroGradient;
    }

    #includeEtc "caseDicts/setConstraintTypes"
}

// ************************************************************************* //
