# Wall heat-flux 
# Time           	patch            	min              	max              	integral         
1.0000000000e+00	coolingDuct	-1.8648298786e+01	7.2797586462e+00	-1.8974480530e-02
1.0000000000e+00	coolingDuct_slave	-4.6028851207e+00	3.3454281123e+00	6.6283744278e-02
1.0000000000e+00	inlet_slave	-5.0821976835e-21	1.6940658945e-20	1.8045350988e-24
1.0000000000e+00	default_to_pad1	-4.8882972425e+04	-9.6696209850e+03	-2.9743226057e+02
1.0000000000e+00	default_to_disk	-7.4033306283e+03	-7.6039962407e+02	-8.0286360094e+02
1.0000000000e+00	default_to_pad2	-5.9695671043e+04	-9.2912474459e+03	-3.1533579504e+02
2.0000000000e+00	coolingDuct	-4.1740029675e+02	2.4056066507e+00	-1.2340393739e+01
2.0000000000e+00	coolingDuct_slave	1.8049577497e-02	4.6600098009e+00	1.1420700208e-01
2.0000000000e+00	inlet_slave	-2.7105054312e-20	2.0328790734e-20	-5.3093916916e-25
2.0000000000e+00	default_to_pad1	-2.6740055902e+04	-4.6039947540e+03	-1.5648291381e+02
2.0000000000e+00	default_to_disk	-8.9430730357e+03	-1.2752362719e+02	-1.1576611441e+03
2.0000000000e+00	default_to_pad2	-3.1609080720e+04	-3.3245853741e+03	-1.6656531743e+02
3.0000000000e+00	coolingDuct	-6.8947383529e+01	3.9209356706e+01	-1.9527322236e+00
3.0000000000e+00	coolingDuct_slave	-8.8424597588e+00	9.1862677539e+00	9.5475434524e-02
3.0000000000e+00	inlet_slave	-3.2293131114e-21	4.0234064995e-21	1.7863170828e-25
3.0000000000e+00	default_to_pad1	-2.5680254831e+04	-4.3952382178e+03	-1.5573819232e+02
3.0000000000e+00	default_to_disk	-1.2669669642e+04	1.8669618094e+03	-1.5389421168e+03
3.0000000000e+00	default_to_pad2	-3.1621036575e+04	-2.9568376982e+03	-1.7086584081e+02
4.0000000000e+00	coolingDuct	-3.0583001060e+00	1.2382737963e+02	3.6925798919e+00
4.0000000000e+00	coolingDuct_slave	-9.8375559295e-01	8.0811726566e+01	1.2821752664e-01
4.0000000000e+00	inlet_slave	-5.0821976835e-21	2.1175823681e-21	-7.9256764231e-25
4.0000000000e+00	default_to_pad1	-2.3487389301e+04	-4.5366431102e+03	-1.6347028492e+02
4.0000000000e+00	default_to_disk	-1.5242859869e+04	4.1426253457e+03	-1.7766798196e+03
4.0000000000e+00	default_to_pad2	-3.0472252889e+04	-3.5701311827e+03	-1.7738929483e+02
5.0000000000e+00	coolingDuct	7.3813952481e-01	1.5151239283e+02	5.3927295014e+00
5.0000000000e+00	coolingDuct_slave	3.8336882422e-01	6.5835251166e+00	1.4058868464e-01
5.0000000000e+00	inlet_slave	-4.4045713257e-20	5.0821976835e-20	-2.1015184782e-24
5.0000000000e+00	default_to_pad1	-2.1312523671e+04	-4.6929765491e+03	-1.7044584424e+02
5.0000000000e+00	default_to_disk	-1.7846480426e+04	6.9323871660e+03	-1.8990637452e+03
5.0000000000e+00	default_to_pad2	-2.8675484214e+04	-4.2370824361e+03	-1.8109153093e+02
6.0000000000e+00	coolingDuct	-6.9465992244e+00	1.2133005241e+02	4.2915305177e+00
6.0000000000e+00	coolingDuct_slave	8.3925790825e-01	2.2275281211e+01	2.0067176271e-01
6.0000000000e+00	inlet_slave	-8.1315162936e-20	8.1315162936e-20	1.4852116495e-24
6.0000000000e+00	default_to_pad1	-2.3653336289e+04	-4.9160481197e+03	-1.7743640794e+02
6.0000000000e+00	default_to_disk	-2.0527930473e+04	9.2088309784e+03	-1.9502271885e+03
6.0000000000e+00	default_to_pad2	-2.6722059583e+04	-4.4985361998e+03	-1.8103885994e+02
7.0000000000e+00	coolingDuct	-2.6162055964e+01	8.1406078617e+01	2.6067216817e+00
7.0000000000e+00	coolingDuct_slave	-5.4161814052e+00	1.9625593937e+01	3.2084197282e-01
7.0000000000e+00	inlet_slave	-1.0842021725e-19	1.0842021725e-19	-4.7613425820e-25
7.0000000000e+00	default_to_pad1	-2.6538579681e+04	-5.0216095332e+03	-1.8527678600e+02
7.0000000000e+00	default_to_disk	-2.1880649034e+04	1.0706057517e+04	-1.9605316447e+03
7.0000000000e+00	default_to_pad2	-2.6520033109e+04	-4.7193934857e+03	-1.8057318621e+02
8.0000000000e+00	coolingDuct	-4.9060412193e+01	8.5220891285e+01	1.3117923153e+00
8.0000000000e+00	coolingDuct_slave	1.0133979936e+00	2.0364515380e+01	5.0918993572e-01
8.0000000000e+00	inlet_slave	-2.1684043450e-19	1.0842021725e-19	-3.2612850823e-23
8.0000000000e+00	default_to_pad1	-2.9766010315e+04	-4.8781436733e+03	-1.9359022544e+02
8.0000000000e+00	default_to_disk	-2.2145722230e+04	1.1575157781e+04	-1.9494881827e+03
8.0000000000e+00	default_to_pad2	-2.6148311533e+04	-5.0774215706e+03	-1.8185079423e+02
9.0000000000e+00	coolingDuct	-4.5987179689e+01	1.4310424604e+02	9.0195524687e-01
9.0000000000e+00	coolingDuct_slave	2.0857590993e+00	1.8529955686e+01	7.3707700250e-01
9.0000000000e+00	inlet_slave	-1.0842021725e-19	2.7105054312e-20	-1.2938573911e-23
9.0000000000e+00	default_to_pad1	-3.3610863061e+04	-4.0424988421e+03	-2.0263639139e+02
9.0000000000e+00	default_to_disk	-2.1648851106e+04	1.1891524772e+04	-1.9311897318e+03
9.0000000000e+00	default_to_pad2	-2.5695335344e+04	-5.0322865259e+03	-1.8169219850e+02
1.0000000000e+01	coolingDuct	-1.4869328295e+01	8.9903976730e+01	1.1933213067e-01
1.0000000000e+01	coolingDuct_slave	-7.5973437287e+01	3.1830020792e+02	1.6986635924e+00
1.0000000000e+01	inlet_slave	-2.0328790734e-20	2.1684043450e-19	1.2841089374e-23
1.0000000000e+01	default_to_pad1	-4.5043211970e+04	-1.5014145114e+04	-4.4704895953e+02
1.0000000000e+01	default_to_disk	-2.1726039677e+04	1.3947898707e+04	-2.1906194951e+03
1.0000000000e+01	default_to_pad2	-3.5670734985e+04	-1.5062701694e+04	-4.2042939143e+02
