# Time           	Tmin             	at location      	Tmax             	at location      	Tmean            	TstDev           	Umin             	at location      	Umax             	at location      	Umean            	UstDev           	pmin             	at location      	pmax             	at location      	pmean            	pstDev           
0.00089355       3.0000000000e+02 ( 2.5000000000e-03 2.5000000000e-03 2.5000000000e-03 ) 3.0000000000e+02 ( 2.5000000000e-03 2.5000000000e-03 2.5000000000e-03 ) 3.0000000000e+02 3.0809133023e-11 1.9908981133e-09 ( 5.2500000000e-02 2.2500000000e-02 5.7500000000e-02 ) 6.1069308083e-08 ( 5.2500000000e-02 2.5000000000e-03 2.5000000000e-03 ) 2.0848837638e-08 9.1224908974e-09 -1.1176547727e+00 ( 4.7500000000e-02 2.7500000000e-02 9.7500000000e-02 ) -2.8657027368e-02 ( 4.7500000000e-02 2.2500000000e-02 2.5000000000e-03 ) -5.7315632617e-01 3.3049813487e-01 
