# Time           	Tmin             	at location      	Tmax             	at location      	Tmean            	TstDev           	Umin             	at location      	Umax             	at location      	Umean            	UstDev           	pmin             	at location      	pmax             	at location      	pmean            	pstDev           
1                1.0125259200e+03 ( 1.0000000000e-04 9.7500000000e-03 -7.2280144832e-19 ) 2.0000000000e+03 ( 9.3000000000e-03 2.5000000000e-04 0.0000000000e+00 ) 1.9686984911e+03 1.3221378665e+02 2.2734985187e-02 ( 1.2500000000e-02 -2.5000000000e-04 0.0000000000e+00 ) 4.4130176639e+00 ( 1.0000000000e-04 9.7500000000e-03 -7.2280144832e-19 ) 8.1024671951e-01 4.9696365105e-01 9.9929705579e+04 ( 1.0000000000e-04 2.5000000000e-04 -4.6982094141e-19 ) 9.9999171819e+04 ( 1.2300000000e-02 9.7500000000e-03 -6.5052130349e-19 ) 9.9977746349e+04 1.4419240109e+01 
2                6.5258763358e+02 ( 1.0000000000e-04 -9.7500000000e-03 -8.4750568097e-19 ) 1.9999361820e+03 ( 1.2700000000e-02 -5.7500000000e-03 0.0000000000e+00 ) 1.9192663348e+03 2.0692718583e+02 8.2525687346e-03 ( 1.0100000000e-02 2.5000000000e-04 4.3368086899e-19 ) 1.7424737241e+00 ( 1.0000000000e-04 -9.7500000000e-03 -8.4750568097e-19 ) 2.6185260129e-01 1.6317220249e-01 9.9997825942e+04 ( 1.0000000000e-04 -9.7500000000e-03 -8.4750568097e-19 ) 1.0005424674e+05 ( 1.0000000000e-04 -2.5000000000e-04 -3.8125678118e-19 ) 1.0001323314e+05 1.1270655455e+01 
3                5.1156961069e+02 ( 1.0000000000e-04 9.7500000000e-03 -7.2280144832e-19 ) 2.0001491843e+03 ( 3.5000000000e-03 -2.5000000000e-04 0.0000000000e+00 ) 1.8830004599e+03 2.7295140818e+02 8.0498059888e-03 ( 1.1700000000e-02 2.5000000000e-04 0.0000000000e+00 ) 1.2508796382e+00 ( 3.0000000000e-04 -9.2500000000e-03 -6.5052130349e-19 ) 3.1499486255e-01 1.7540532716e-01 9.9991063709e+04 ( 5.0000000000e-04 -2.5000000000e-04 0.0000000000e+00 ) 1.0000119233e+05 ( 1.9900000000e-02 -2.5000000000e-04 -7.9508159316e-19 ) 9.9998814520e+04 2.1521139163e+00 
4                4.4066280554e+02 ( 1.0000000000e-04 9.7500000000e-03 -7.2280144832e-19 ) 2.0000015853e+03 ( 1.5100000000e-02 -2.2500000000e-03 0.0000000000e+00 ) 1.8537581764e+03 3.1559294047e+02 6.3804289021e-03 ( 1.1700000000e-02 2.5000000000e-04 0.0000000000e+00 ) 1.1057169888e+00 ( 3.0000000000e-04 -9.2500000000e-03 -6.5052130349e-19 ) 2.6331897132e-01 1.5578661395e-01 9.9999748427e+04 ( 1.4500000000e-02 9.2500000000e-03 0.0000000000e+00 ) 1.0000519286e+05 ( 1.0000000000e-04 -2.5000000000e-04 -3.8125678118e-19 ) 1.0000091522e+05 1.0687839826e+00 
5                3.9976994020e+02 ( 1.0000000000e-04 9.7500000000e-03 -7.2280144832e-19 ) 2.0000098920e+03 ( 4.7000000000e-03 -2.2500000000e-03 0.0000000000e+00 ) 1.8285406607e+03 3.4711874518e+02 6.2623605751e-03 ( 1.1700000000e-02 2.5000000000e-04 0.0000000000e+00 ) 9.8062186331e-01 ( 3.0000000000e-04 -9.2500000000e-03 -6.5052130349e-19 ) 2.3628679772e-01 1.4648188437e-01 9.9999883577e+04 ( 1.1900000000e-02 -9.2500000000e-03 0.0000000000e+00 ) 1.0000200878e+05 ( 1.0000000000e-04 1.2500000000e-03 -4.6982094141e-19 ) 1.0000063890e+05 4.5265377144e-01 
6                3.7390521571e+02 ( 1.0000000000e-04 9.7500000000e-03 -7.2280144832e-19 ) 2.0000051737e+03 ( 5.3000000000e-03 -2.7500000000e-03 0.0000000000e+00 ) 1.8063827869e+03 3.7169088525e+02 5.9964277496e-03 ( 1.1700000000e-02 2.5000000000e-04 0.0000000000e+00 ) 8.5432180462e-01 ( 3.0000000000e-04 9.2500000000e-03 -6.5052130349e-19 ) 2.1270571733e-01 1.3592445420e-01 9.9999990535e+04 ( 1.1900000000e-02 -9.2500000000e-03 0.0000000000e+00 ) 1.0000184514e+05 ( 1.0000000000e-04 -7.5000000000e-04 -4.6982094141e-19 ) 1.0000059111e+05 3.8730418544e-01 
7                3.5690726473e+02 ( 1.0000000000e-04 9.7500000000e-03 -7.2280144832e-19 ) 2.0000044119e+03 ( 5.5000000000e-03 -2.7500000000e-03 0.0000000000e+00 ) 1.7865293287e+03 3.9143984092e+02 5.1071621741e-03 ( 1.1900000000e-02 -2.5000000000e-04 0.0000000000e+00 ) 7.4243813883e-01 ( 3.0000000000e-04 9.2500000000e-03 -6.5052130349e-19 ) 1.9277510403e-01 1.2610267916e-01 1.0000004023e+05 ( 1.1300000000e-02 -9.2500000000e-03 0.0000000000e+00 ) 1.0000150327e+05 ( 1.0000000000e-04 7.5000000000e-04 -4.6982094141e-19 ) 1.0000054786e+05 3.2061858222e-01 
8                3.4523965609e+02 ( 1.0000000000e-04 9.7500000000e-03 -7.2280144832e-19 ) 2.0000033677e+03 ( 5.9000000000e-03 -2.7500000000e-03 0.0000000000e+00 ) 1.7685562674e+03 4.0770095794e+02 4.5076014049e-03 ( 1.2100000000e-02 2.5000000000e-04 0.0000000000e+00 ) 6.4698507193e-01 ( 3.0000000000e-04 9.2500000000e-03 -6.5052130349e-19 ) 1.7654699827e-01 1.1711593052e-01 1.0000005772e+05 ( 1.0900000000e-02 -9.2500000000e-03 -6.5052130349e-19 ) 1.0000130385e+05 ( 1.0000000000e-04 1.2500000000e-03 -4.6982094141e-19 ) 1.0000047215e+05 2.6085963971e-01 
9                3.3674577789e+02 ( 1.0000000000e-04 9.7500000000e-03 -7.2280144832e-19 ) 2.0000022955e+03 ( 6.3000000000e-03 -2.7500000000e-03 0.0000000000e+00 ) 1.7520577145e+03 4.2129510711e+02 4.2902043726e-03 ( 1.2300000000e-02 2.5000000000e-04 -6.5052130349e-19 ) 5.6467698268e-01 ( 5.0000000000e-04 9.2500000000e-03 0.0000000000e+00 ) 1.6296848607e-01 1.0945629181e-01 1.0000004523e+05 ( 8.9000000000e-03 -9.2500000000e-03 -6.5052130349e-19 ) 1.0000109212e+05 ( 1.0000000000e-04 -2.5000000000e-04 -3.8125678118e-19 ) 1.0000040947e+05 2.1996142494e-01 
10               3.3035652479e+02 ( 1.0000000000e-04 9.7500000000e-03 -7.2280144832e-19 ) 2.0000017926e+03 ( 1.2900000000e-02 -1.7500000000e-03 -6.5052130349e-19 ) 1.7368092390e+03 4.3286804716e+02 3.6283372876e-03 ( 1.2500000000e-02 -2.5000000000e-04 0.0000000000e+00 ) 5.0524312580e-01 ( 5.0000000000e-04 9.2500000000e-03 0.0000000000e+00 ) 1.5038571741e-01 1.0252059116e-01 1.0000005133e+05 ( 9.1000000000e-03 -9.2500000000e-03 0.0000000000e+00 ) 1.0000099807e+05 ( 1.0000000000e-04 7.5000000000e-04 -4.6982094141e-19 ) 1.0000040026e+05 2.0889144162e-01 
11               3.2542512145e+02 ( 1.0000000000e-04 9.7500000000e-03 -7.2280144832e-19 ) 2.0000016671e+03 ( 1.2700000000e-02 -1.7500000000e-03 0.0000000000e+00 ) 1.7225926977e+03 4.4284225422e+02 3.3615409207e-03 ( 1.2700000000e-02 2.5000000000e-04 0.0000000000e+00 ) 4.5478702671e-01 ( 5.0000000000e-04 -9.2500000000e-03 0.0000000000e+00 ) 1.4065426111e-01 9.6194162713e-02 1.0000004944e+05 ( 1.0700000000e-02 9.2500000000e-03 0.0000000000e+00 ) 1.0000079435e+05 ( 1.0000000000e-04 -7.5000000000e-04 -4.6982094141e-19 ) 1.0000033028e+05 1.6135603950e-01 
12               3.2155174241e+02 ( 1.0000000000e-04 9.7500000000e-03 -7.2280144832e-19 ) 2.0000011211e+03 ( 1.2500000000e-02 -1.7500000000e-03 0.0000000000e+00 ) 1.7093003697e+03 4.5153383333e+02 2.9024428270e-03 ( 1.2900000000e-02 -2.5000000000e-04 -7.9508159316e-19 ) 4.1235168264e-01 ( 3.3000000000e-03 -9.2500000000e-03 0.0000000000e+00 ) 1.3086479845e-01 9.0394434597e-02 1.0000004599e+05 ( 1.1500000000e-02 -9.2500000000e-03 -6.5052130349e-19 ) 1.0000083666e+05 ( 1.0000000000e-04 2.5000000000e-04 -4.6982094141e-19 ) 1.0000033501e+05 1.7106443718e-01 
13               3.1868031466e+02 ( 1.0000000000e-04 9.7500000000e-03 -7.2280144832e-19 ) 2.0000007900e+03 ( 1.2500000000e-02 -1.7500000000e-03 0.0000000000e+00 ) 1.6967570343e+03 4.5915460287e+02 2.6655840148e-03 ( 1.3100000000e-02 -2.5000000000e-04 0.0000000000e+00 ) 3.8041821720e-01 ( 3.9000000000e-03 -9.2500000000e-03 0.0000000000e+00 ) 1.2379613627e-01 8.5283276814e-02 1.0000004514e+05 ( 1.0300000000e-02 9.2500000000e-03 -6.5052130349e-19 ) 1.0000061961e+05 ( 1.0000000000e-04 -7.5000000000e-04 -4.6982094141e-19 ) 1.0000026254e+05 1.2301989388e-01 
14               3.1624742174e+02 ( 1.0000000000e-04 9.7500000000e-03 -7.2280144832e-19 ) 1.9999999789e+03 ( 1.2500000000e-02 -1.2500000000e-03 0.0000000000e+00 ) 1.6848903124e+03 4.6591046539e+02 2.3003258523e-03 ( 1.3300000000e-02 -2.5000000000e-04 -2.6926452232e-19 ) 3.5420333518e-01 ( 3.9000000000e-03 -9.2500000000e-03 0.0000000000e+00 ) 1.1702861263e-01 8.0825893934e-02 1.0000003858e+05 ( 9.5000000000e-03 9.2500000000e-03 -6.5052130349e-19 ) 1.0000061160e+05 ( 1.0000000000e-04 2.5000000000e-04 -4.6982094141e-19 ) 1.0000025054e+05 1.2259166530e-01 
15               3.1418636659e+02 ( 1.0000000000e-04 9.7500000000e-03 -7.2280144832e-19 ) 1.9999993749e+03 ( 1.2500000000e-02 -1.2500000000e-03 0.0000000000e+00 ) 1.6736109526e+03 4.7192524533e+02 2.0739802919e-03 ( 1.3700000000e-02 -2.5000000000e-04 0.0000000000e+00 ) 3.3063534959e-01 ( 4.3000000000e-03 -9.2500000000e-03 0.0000000000e+00 ) 1.1063900773e-01 7.6854980517e-02 1.0000003322e+05 ( 1.2300000000e-02 -9.2500000000e-03 -6.5052130349e-19 ) 1.0000058439e+05 ( 1.0000000000e-04 2.5000000000e-04 -4.6982094141e-19 ) 1.0000024915e+05 1.2500077426e-01 
16               3.1243727819e+02 ( 1.0000000000e-04 9.7500000000e-03 -7.2280144832e-19 ) 1.9999986530e+03 ( 1.2500000000e-02 -1.2500000000e-03 0.0000000000e+00 ) 1.6628600229e+03 4.7731845314e+02 1.7302844538e-03 ( 1.7500000000e-02 2.5000000000e-04 -6.5052130349e-19 ) 3.0917158622e-01 ( 4.3000000000e-03 -9.2500000000e-03 0.0000000000e+00 ) 1.0537101214e-01 7.3105543202e-02 1.0000003215e+05 ( 1.0300000000e-02 -9.2500000000e-03 -6.5052130349e-19 ) 1.0000052080e+05 ( 1.0000000000e-04 -2.5000000000e-04 -3.8125678118e-19 ) 1.0000021359e+05 1.0360874385e-01 
17               3.1095154428e+02 ( 1.0000000000e-04 9.7500000000e-03 -7.2280144832e-19 ) 1.9999975279e+03 ( 1.2300000000e-02 -1.2500000000e-03 -6.5052130349e-19 ) 1.6525783245e+03 4.8217376844e+02 1.6819497615e-03 ( 1.4300000000e-02 -2.5000000000e-04 -1.0643461155e-18 ) 2.9062017048e-01 ( 4.3000000000e-03 -9.2500000000e-03 0.0000000000e+00 ) 1.0070176151e-01 6.9773293072e-02 1.0000002832e+05 ( 1.0900000000e-02 9.2500000000e-03 -6.5052130349e-19 ) 1.0000047561e+05 ( 1.0000000000e-04 -2.5000000000e-04 -3.8125678118e-19 ) 1.0000019906e+05 9.6913271401e-02 
18               3.0967209613e+02 ( 1.0000000000e-04 9.7500000000e-03 -7.2280144832e-19 ) 1.9999962347e+03 ( 1.2300000000e-02 -1.2500000000e-03 -6.5052130349e-19 ) 1.6427069220e+03 4.8655757180e+02 1.4600563567e-03 ( 1.4900000000e-02 2.5000000000e-04 -6.5052130349e-19 ) 2.7458866941e-01 ( 4.7000000000e-03 9.2500000000e-03 0.0000000000e+00 ) 9.6784277936e-02 6.6765616283e-02 1.0000001749e+05 ( 9.5000000000e-03 9.2500000000e-03 -6.5052130349e-19 ) 1.0000041793e+05 ( 1.0000000000e-04 -2.5000000000e-04 -3.8125678118e-19 ) 1.0000018137e+05 8.8607624704e-02 
19               3.0865867240e+02 ( 1.0000000000e-04 9.7500000000e-03 -7.2280144832e-19 ) 1.9999946307e+03 ( 1.2100000000e-02 -1.2500000000e-03 0.0000000000e+00 ) 1.6332223591e+03 4.9054068264e+02 1.2134629174e-03 ( 1.6300000000e-02 2.5000000000e-04 -9.1978582581e-19 ) 2.6030045378e-01 ( 5.1000000000e-03 9.2500000000e-03 0.0000000000e+00 ) 9.3066406936e-02 6.3931786077e-02 1.0000001658e+05 ( 1.1700000000e-02 9.2500000000e-03 0.0000000000e+00 ) 1.0000042575e+05 ( 1.0000000000e-04 2.5000000000e-04 -4.6982094141e-19 ) 1.0000017148e+05 8.5380643100e-02 
20               3.0784234750e+02 ( 1.0000000000e-04 9.7500000000e-03 -7.2280144832e-19 ) 1.9999925982e+03 ( 1.2100000000e-02 -1.2500000000e-03 0.0000000000e+00 ) 1.6240805132e+03 4.9415944161e+02 2.4929517895e-03 ( 1.9000000000e-03 -2.5000000000e-04 0.0000000000e+00 ) 2.4630927106e-01 ( 5.1000000000e-03 -9.2500000000e-03 0.0000000000e+00 ) 8.9979863525e-02 6.1067765102e-02 1.0000002128e+05 ( 9.3000000000e-03 9.2500000000e-03 0.0000000000e+00 ) 1.0000050640e+05 ( 1.9900000000e-02 1.2500000000e-03 -6.5052130349e-19 ) 1.0000018697e+05 9.6477984770e-02 
21               3.0715656420e+02 ( 1.0000000000e-04 9.7500000000e-03 -7.2280144832e-19 ) 1.9999902926e+03 ( 1.1900000000e-02 -1.2500000000e-03 0.0000000000e+00 ) 1.6152559200e+03 4.9745723849e+02 5.9712976520e-03 ( 1.5700000000e-02 2.5000000000e-04 -3.8125678118e-19 ) 2.3400707601e-01 ( 5.3000000000e-03 -9.2500000000e-03 0.0000000000e+00 ) 8.7362120078e-02 5.8770904878e-02 1.0000001927e+05 ( 1.0500000000e-02 9.2500000000e-03 0.0000000000e+00 ) 1.0000033714e+05 ( 1.0000000000e-04 -2.5000000000e-04 -3.8125678118e-19 ) 1.0000012328e+05 6.3714716295e-02 
22               3.0656437343e+02 ( 1.0000000000e-04 9.7500000000e-03 -7.2280144832e-19 ) 1.9999872785e+03 ( 1.2100000000e-02 -7.5000000000e-04 0.0000000000e+00 ) 1.6067221627e+03 5.0047175521e+02 2.1103328321e-03 ( 2.1000000000e-03 -2.5000000000e-04 0.0000000000e+00 ) 2.2260946876e-01 ( 5.3000000000e-03 -9.2500000000e-03 0.0000000000e+00 ) 8.4896928396e-02 5.6537708324e-02 1.0000001696e+05 ( 1.0900000000e-02 9.2500000000e-03 -6.5052130349e-19 ) 1.0000033684e+05 ( 1.0000000000e-04 2.5000000000e-04 -4.6982094141e-19 ) 1.0000014391e+05 7.1826436753e-02 
23               3.0604961059e+02 ( 1.0000000000e-04 9.7500000000e-03 -7.2280144832e-19 ) 1.9999847929e+03 ( 1.1900000000e-02 -7.5000000000e-04 0.0000000000e+00 ) 1.5984607867e+03 5.0323360476e+02 7.3517191155e-03 ( 2.3000000000e-03 -2.5000000000e-04 0.0000000000e+00 ) 2.1204527112e-01 ( 5.5000000000e-03 -9.2500000000e-03 0.0000000000e+00 ) 8.2687907172e-02 5.4509161361e-02 1.0000001318e+05 ( 1.1500000000e-02 9.2500000000e-03 -6.5052130349e-19 ) 1.0000031557e+05 ( 1.0000000000e-04 2.5000000000e-04 -4.6982094141e-19 ) 1.0000013398e+05 6.5466934594e-02 
24               3.0560085015e+02 ( 1.0000000000e-04 9.7500000000e-03 -7.2280144832e-19 ) 1.9999814544e+03 ( 1.1900000000e-02 -7.5000000000e-04 0.0000000000e+00 ) 1.5904449774e+03 5.0575907760e+02 1.3209300253e-03 ( 2.3000000000e-03 -2.5000000000e-04 0.0000000000e+00 ) 2.0254483609e-01 ( 5.7000000000e-03 -9.2500000000e-03 0.0000000000e+00 ) 8.0815328948e-02 5.2680569346e-02 1.0000001349e+05 ( 1.1700000000e-02 -9.2500000000e-03 0.0000000000e+00 ) 1.0000028694e+05 ( 1.0000000000e-04 7.5000000000e-04 -4.6982094141e-19 ) 1.0000012249e+05 5.8813845474e-02 
25               3.0520445923e+02 ( 1.0000000000e-04 9.7500000000e-03 -7.2280144832e-19 ) 1.9999777628e+03 ( 1.1700000000e-02 -7.5000000000e-04 0.0000000000e+00 ) 1.5826639252e+03 5.0808202306e+02 6.6104261728e-03 ( 2.5000000000e-03 -2.5000000000e-04 0.0000000000e+00 ) 1.9455559389e-01 ( 6.5000000000e-03 9.2500000000e-03 0.0000000000e+00 ) 7.9199316058e-02 5.1036471616e-02 1.0000001366e+05 ( 1.1100000000e-02 9.2500000000e-03 0.0000000000e+00 ) 1.0000025452e+05 ( 1.0000000000e-04 -1.2500000000e-03 -4.6982094141e-19 ) 1.0000011074e+05 5.2022346173e-02 
26               3.0485369230e+02 ( 1.0000000000e-04 9.7500000000e-03 -7.2280144832e-19 ) 1.9999733542e+03 ( 1.1700000000e-02 -7.5000000000e-04 0.0000000000e+00 ) 1.5751082852e+03 5.1021020250e+02 1.7456821147e-03 ( 2.5000000000e-03 -2.5000000000e-04 0.0000000000e+00 ) 1.8681485854e-01 ( 6.5000000000e-03 9.2500000000e-03 0.0000000000e+00 ) 7.7613090582e-02 4.9547406953e-02 1.0000001132e+05 ( 1.2300000000e-02 -9.2500000000e-03 -6.5052130349e-19 ) 1.0000026165e+05 ( 1.0000000000e-04 7.5000000000e-04 -4.6982094141e-19 ) 1.0000011854e+05 5.7768410111e-02 
27               3.0454747626e+02 ( 1.0000000000e-04 9.7500000000e-03 -7.2280144832e-19 ) 1.9999685021e+03 ( 1.1500000000e-02 -7.5000000000e-04 -6.5052130349e-19 ) 1.5677532406e+03 5.1216365245e+02 4.7918094686e-03 ( 2.7000000000e-03 -2.5000000000e-04 0.0000000000e+00 ) 1.8143117653e-01 ( 1.9500000000e-02 -1.7500000000e-03 -6.5052130349e-19 ) 7.6109250657e-02 4.8311456984e-02 1.0000001357e+05 ( 9.7000000000e-03 -9.2500000000e-03 0.0000000000e+00 ) 1.0000027839e+05 ( 1.0000000000e-04 -2.5000000000e-04 -3.8125678118e-19 ) 1.0000011021e+05 5.4949507594e-02 
28               3.0427639324e+02 ( 1.0000000000e-04 9.7500000000e-03 -7.2280144832e-19 ) 1.9999626838e+03 ( 1.1500000000e-02 -7.5000000000e-04 -6.5052130349e-19 ) 1.5605904584e+03 5.1395419230e+02 1.3088502514e-03 ( 2.7000000000e-03 -2.5000000000e-04 0.0000000000e+00 ) 1.8009325839e-01 ( 1.9500000000e-02 -1.7500000000e-03 -6.5052130349e-19 ) 7.4984135332e-02 4.7180627305e-02 1.0000001260e+05 ( 1.0500000000e-02 -9.2500000000e-03 0.0000000000e+00 ) 1.0000020539e+05 ( 1.0000000000e-04 1.2500000000e-03 -4.6982094141e-19 ) 1.0000009793e+05 4.4550734528e-02 
29               3.0404060365e+02 ( 1.0000000000e-04 9.7500000000e-03 -7.2280144832e-19 ) 1.9999571283e+03 ( 1.1500000000e-02 -2.5000000000e-04 -7.9508159316e-19 ) 1.5536077760e+03 5.1559575387e+02 4.8193528027e-03 ( 2.9000000000e-03 2.5000000000e-04 0.0000000000e+00 ) 1.7908246593e-01 ( 1.9300000000e-02 3.7500000000e-03 -6.5052130349e-19 ) 7.3830194487e-02 4.6239684417e-02 1.0000001205e+05 ( 9.7000000000e-03 -9.2500000000e-03 0.0000000000e+00 ) 1.0000022162e+05 ( 1.0000000000e-04 -2.5000000000e-04 -3.8125678118e-19 ) 1.0000009560e+05 4.5698738010e-02 
30               3.0382605138e+02 ( 1.0000000000e-04 9.7500000000e-03 -7.2280144832e-19 ) 1.9999512348e+03 ( 1.1300000000e-02 -2.5000000000e-04 0.0000000000e+00 ) 1.5467935188e+03 5.1709398864e+02 1.2587770117e-03 ( 2.9000000000e-03 -2.5000000000e-04 0.0000000000e+00 ) 1.7867296882e-01 ( 1.9300000000e-02 -1.2500000000e-03 -6.5052130349e-19 ) 7.2802831320e-02 4.5433028021e-02 1.0000001023e+05 ( 1.0100000000e-02 9.2500000000e-03 0.0000000000e+00 ) 1.0000020268e+05 ( 1.0000000000e-04 2.5000000000e-04 -4.6982094141e-19 ) 1.0000008632e+05 4.0661278963e-02 
31               3.0363315956e+02 ( 1.0000000000e-04 9.7500000000e-03 -7.2280144832e-19 ) 1.9999445571e+03 ( 1.1300000000e-02 -2.5000000000e-04 0.0000000000e+00 ) 1.5401428713e+03 5.1846736770e+02 4.1898030637e-03 ( 3.1000000000e-03 -2.5000000000e-04 0.0000000000e+00 ) 1.7878162516e-01 ( 1.9300000000e-02 -7.5000000000e-04 -6.5052130349e-19 ) 7.1838514374e-02 4.4716357890e-02 1.0000000815e+05 ( 1.0700000000e-02 9.2500000000e-03 0.0000000000e+00 ) 1.0000019932e+05 ( 1.0000000000e-04 2.5000000000e-04 -4.6982094141e-19 ) 1.0000008739e+05 4.1855710095e-02 
32               3.0345805521e+02 ( 1.0000000000e-04 9.7500000000e-03 -7.2280144832e-19 ) 1.9999372093e+03 ( 1.1100000000e-02 -2.5000000000e-04 0.0000000000e+00 ) 1.5336440544e+03 5.1971846678e+02 9.4243340368e-04 ( 3.1000000000e-03 -2.5000000000e-04 0.0000000000e+00 ) 1.7898876483e-01 ( 1.9300000000e-02 -3.2500000000e-03 -6.5052130349e-19 ) 7.1067597232e-02 4.4116978964e-02 1.0000000894e+05 ( 1.0700000000e-02 9.2500000000e-03 0.0000000000e+00 ) 1.0000018802e+05 ( 1.9900000000e-02 -2.7500000000e-03 -6.5052130349e-19 ) 1.0000008659e+05 4.1001165481e-02 
33               3.0329927208e+02 ( 1.0000000000e-04 9.7500000000e-03 -7.2280144832e-19 ) 1.9999288631e+03 ( 1.1100000000e-02 -2.5000000000e-04 0.0000000000e+00 ) 1.5272888643e+03 5.2085695853e+02 3.6370913964e-03 ( 3.3000000000e-03 -2.5000000000e-04 0.0000000000e+00 ) 1.7822445275e-01 ( 1.9300000000e-02 3.7500000000e-03 -6.5052130349e-19 ) 7.0268687581e-02 4.3616322572e-02 1.0000000665e+05 ( 1.1500000000e-02 -9.2500000000e-03 -6.5052130349e-19 ) 1.0000017538e+05 ( 1.0000000000e-04 -2.5000000000e-04 -3.8125678118e-19 ) 1.0000007417e+05 3.4666520346e-02 
34               3.0324276553e+02 ( 1.0000000000e-04 9.7500000000e-03 -7.2280144832e-19 ) 1.9999195180e+03 ( 1.0900000000e-02 -2.5000000000e-04 -7.9508159316e-19 ) 1.5210733887e+03 5.2189029595e+02 7.6093133296e-04 ( 3.3000000000e-03 -2.5000000000e-04 0.0000000000e+00 ) 1.7864794253e-01 ( 1.9300000000e-02 -5.2500000000e-03 -7.6251356235e-19 ) 6.9621736419e-02 4.3211882605e-02 1.0000000790e+05 ( 1.1700000000e-02 -9.2500000000e-03 0.0000000000e+00 ) 1.0000017400e+05 ( 1.0000000000e-04 2.5000000000e-04 -4.6982094141e-19 ) 1.0000008091e+05 3.8584477130e-02 
35               3.0317347437e+02 ( 1.0000000000e-04 9.7500000000e-03 -7.2280144832e-19 ) 1.9999089590e+03 ( 1.0900000000e-02 -2.5000000000e-04 -7.9508159316e-19 ) 1.5149857928e+03 5.2282677650e+02 3.1770824764e-03 ( 3.5000000000e-03 -2.5000000000e-04 0.0000000000e+00 ) 1.7884761237e-01 ( 1.9300000000e-02 -4.2500000000e-03 -7.6251356235e-19 ) 6.8998339621e-02 4.2854115210e-02 1.0000000762e+05 ( 1.0700000000e-02 -9.2500000000e-03 0.0000000000e+00 ) 1.0000016023e+05 ( 1.0000000000e-04 2.5000000000e-04 -4.6982094141e-19 ) 1.0000006997e+05 3.2411165376e-02 
36               3.0300646650e+02 ( 1.0000000000e-04 9.7500000000e-03 -7.2280144832e-19 ) 1.9998970764e+03 ( 1.0700000000e-02 -2.5000000000e-04 0.0000000000e+00 ) 1.5090233490e+03 5.2366993280e+02 4.4375811355e-04 ( 3.5000000000e-03 -2.5000000000e-04 0.0000000000e+00 ) 1.8051657553e-01 ( 1.9300000000e-02 -4.2500000000e-03 -7.6251356235e-19 ) 6.8543698798e-02 4.2659221933e-02 1.0000000718e+05 ( 1.0500000000e-02 -9.2500000000e-03 0.0000000000e+00 ) 1.0000019734e+05 ( 1.9900000000e-02 -2.7500000000e-03 -6.5052130349e-19 ) 1.0000007899e+05 3.8901820812e-02 
37               3.0295046790e+02 ( 1.0000000000e-04 9.7500000000e-03 -7.2280144832e-19 ) 1.9998835746e+03 ( 1.0700000000e-02 -2.5000000000e-04 0.0000000000e+00 ) 1.5031785918e+03 5.2442915608e+02 2.9944316937e-03 ( 3.7000000000e-03 -2.5000000000e-04 0.0000000000e+00 ) 1.7829914917e-01 ( 1.9300000000e-02 -4.2500000000e-03 -7.6251356235e-19 ) 6.7897347326e-02 4.2422501539e-02 1.0000000679e+05 ( 1.0500000000e-02 -9.2500000000e-03 0.0000000000e+00 ) 1.0000014650e+05 ( 1.0000000000e-04 2.5000000000e-04 -4.6982094141e-19 ) 1.0000005730e+05 2.8003901255e-02 
38               3.0285477953e+02 ( 1.0000000000e-04 -9.7500000000e-03 -8.4750568097e-19 ) 1.9998681545e+03 ( 1.0500000000e-02 -2.5000000000e-04 0.0000000000e+00 ) 1.4974546704e+03 5.2510819743e+02 3.6957886764e-04 ( 3.7000000000e-03 -2.5000000000e-04 0.0000000000e+00 ) 1.7775724624e-01 ( 1.9300000000e-02 -4.2500000000e-03 -7.6251356235e-19 ) 6.7400980399e-02 4.2282280087e-02 1.0000000742e+05 ( 1.0500000000e-02 -9.2500000000e-03 0.0000000000e+00 ) 1.0000015174e+05 ( 1.0000000000e-04 2.5000000000e-04 -4.6982094141e-19 ) 1.0000007107e+05 3.3634970047e-02 
39               3.0276079275e+02 ( 1.0000000000e-04 -9.7500000000e-03 -8.4750568097e-19 ) 1.9998467973e+03 ( 1.0700000000e-02 -2.5000000000e-04 0.0000000000e+00 ) 1.4918383191e+03 5.2569912715e+02 1.5898584502e-03 ( 3.9000000000e-03 -2.5000000000e-04 0.0000000000e+00 ) 1.7731217354e-01 ( 1.9300000000e-02 -4.2500000000e-03 -7.6251356235e-19 ) 6.6986477641e-02 4.2289718713e-02 1.0000000662e+05 ( 9.9000000000e-03 9.2500000000e-03 0.0000000000e+00 ) 1.0000017193e+05 ( 1.0000000000e-04 -7.5000000000e-04 -4.6982094141e-19 ) 1.0000006552e+05 3.4985573114e-02 
40               3.0267236789e+02 ( 1.0000000000e-04 -9.7500000000e-03 -8.4750568097e-19 ) 1.9998225543e+03 ( 1.0700000000e-02 -2.5000000000e-04 0.0000000000e+00 ) 1.4863127251e+03 5.2621340284e+02 1.5014989301e-03 ( 3.9000000000e-03 7.5000000000e-04 0.0000000000e+00 ) 1.7688798329e-01 ( 1.9100000000e-02 -3.2500000000e-03 -6.5052130349e-19 ) 6.7008948449e-02 4.1979047458e-02 1.0000000599e+05 ( 3.5000000000e-03 2.2500000000e-03 0.0000000000e+00 ) 1.0000010891e+05 ( 1.9900000000e-02 -7.5000000000e-04 -6.5052130349e-19 ) 1.0000004800e+05 2.0458917608e-02 
41               3.0265788888e+02 ( 1.0000000000e-04 9.7500000000e-03 -7.2280144832e-19 ) 1.9997939392e+03 ( 1.0700000000e-02 -2.5000000000e-04 0.0000000000e+00 ) 1.4809160096e+03 5.2668402214e+02 2.2792922894e-03 ( 4.1000000000e-03 2.5000000000e-04 0.0000000000e+00 ) 1.7731115556e-01 ( 1.9100000000e-02 -3.7500000000e-03 -6.5052130349e-19 ) 6.6081030773e-02 4.2214910008e-02 1.0000000715e+05 ( 1.0300000000e-02 -9.2500000000e-03 -6.5052130349e-19 ) 1.0000018791e+05 ( 3.3000000000e-03 1.7500000000e-03 0.0000000000e+00 ) 1.0000007630e+05 4.1176123124e-02 
42               3.0254799963e+02 ( 1.0000000000e-04 -9.7500000000e-03 -8.4750568097e-19 ) 1.9997622664e+03 ( 1.0500000000e-02 -2.5000000000e-04 0.0000000000e+00 ) 1.4756075491e+03 5.2707373109e+02 5.3052563978e-04 ( 4.1000000000e-03 2.5000000000e-04 0.0000000000e+00 ) 1.7697966048e-01 ( 1.9100000000e-02 -3.7500000000e-03 -6.5052130349e-19 ) 6.5906713926e-02 4.2167493385e-02 1.0000000722e+05 ( 1.0300000000e-02 -9.2500000000e-03 -6.5052130349e-19 ) 1.0000013900e+05 ( 1.0000000000e-04 -2.7500000000e-03 -4.6982094141e-19 ) 1.0000005952e+05 2.7189150964e-02 
43               3.0244953552e+02 ( 1.0000000000e-04 -9.7500000000e-03 -8.4750568097e-19 ) 1.9997274187e+03 ( 1.0500000000e-02 -2.5000000000e-04 0.0000000000e+00 ) 1.4704022051e+03 5.2740670003e+02 2.1008666304e-03 ( 4.1000000000e-03 7.5000000000e-04 0.0000000000e+00 ) 1.7661858455e-01 ( 1.9100000000e-02 -4.2500000000e-03 -4.9324904004e-19 ) 6.5546240942e-02 4.2176754655e-02 1.0000000690e+05 ( 1.0100000000e-02 -9.2500000000e-03 0.0000000000e+00 ) 1.0000010740e+05 ( 1.0000000000e-04 -1.2500000000e-03 -4.6982094141e-19 ) 1.0000005309e+05 2.1868793350e-02 
44               3.0237218134e+02 ( 1.0000000000e-04 -9.7500000000e-03 -8.4750568097e-19 ) 1.9996889530e+03 ( 1.0500000000e-02 -2.5000000000e-04 0.0000000000e+00 ) 1.4652806562e+03 5.2766821299e+02 1.8879516519e-04 ( 4.3000000000e-03 2.5000000000e-04 0.0000000000e+00 ) 1.7683962237e-01 ( 1.9100000000e-02 -4.2500000000e-03 -4.9324904004e-19 ) 6.5500208694e-02 4.2218293481e-02 1.0000000612e+05 ( 9.9000000000e-03 9.2500000000e-03 0.0000000000e+00 ) 1.0000012280e+05 ( 1.0000000000e-04 2.5000000000e-04 -4.6982094141e-19 ) 1.0000005478e+05 2.6072237101e-02 
45               3.0226996764e+02 ( 1.0000000000e-04 9.7500000000e-03 -7.2280144832e-19 ) 1.9996462333e+03 ( 1.0500000000e-02 -2.5000000000e-04 0.0000000000e+00 ) 1.4602400865e+03 5.2787616248e+02 2.4516795186e-03 ( 4.3000000000e-03 -2.5000000000e-04 0.0000000000e+00 ) 1.7600787545e-01 ( 1.9100000000e-02 -3.7500000000e-03 -6.5052130349e-19 ) 6.5352015810e-02 4.2210730646e-02 1.0000000538e+05 ( 9.7000000000e-03 9.2500000000e-03 0.0000000000e+00 ) 1.0000011083e+05 ( 1.0000000000e-04 2.2500000000e-03 -4.6982094141e-19 ) 1.0000004542e+05 2.0355919656e-02 
46               3.0215517834e+02 ( 1.0000000000e-04 9.7500000000e-03 -7.2280144832e-19 ) 1.9995992806e+03 ( 1.0300000000e-02 -2.5000000000e-04 -7.9508159316e-19 ) 1.4552879058e+03 5.2803672318e+02 3.8879892709e-04 ( 4.5000000000e-03 -2.5000000000e-04 0.0000000000e+00 ) 1.7583084412e-01 ( 1.9100000000e-02 3.7500000000e-03 -6.5052130349e-19 ) 6.5053741656e-02 4.2452352281e-02 1.0000000585e+05 ( 9.9000000000e-03 -9.2500000000e-03 0.0000000000e+00 ) 1.0000012947e+05 ( 1.0000000000e-04 2.5000000000e-04 -4.6982094141e-19 ) 1.0000005825e+05 2.7341277117e-02 
47               3.0205877098e+02 ( 1.0000000000e-04 9.7500000000e-03 -7.2280144832e-19 ) 1.9995488490e+03 ( 1.0300000000e-02 -2.5000000000e-04 -7.9508159316e-19 ) 1.4504209659e+03 5.2814879622e+02 1.5258366270e-03 ( 4.5000000000e-03 -7.5000000000e-04 0.0000000000e+00 ) 1.7552609806e-01 ( 1.9100000000e-02 3.7500000000e-03 -6.5052130349e-19 ) 6.4844727756e-02 4.2542550395e-02 1.0000000560e+05 ( 1.6700000000e-02 9.2500000000e-03 -6.5052130349e-19 ) 1.0000010375e+05 ( 1.0000000000e-04 -2.5000000000e-04 -3.8125678118e-19 ) 1.0000004882e+05 2.0661941437e-02 
48               3.0197827554e+02 ( 1.0000000000e-04 9.7500000000e-03 -7.2280144832e-19 ) 1.9994926501e+03 ( 1.0300000000e-02 -2.5000000000e-04 -7.9508159316e-19 ) 1.4456361804e+03 5.2821014040e+02 5.1584568496e-04 ( 4.7000000000e-03 -1.2500000000e-03 0.0000000000e+00 ) 1.7526299096e-01 ( 1.9100000000e-02 3.7500000000e-03 -6.5052130349e-19 ) 6.4699160446e-02 4.2747751415e-02 1.0000000546e+05 ( 1.6700000000e-02 9.2500000000e-03 -6.5052130349e-19 ) 1.0000012438e+05 ( 1.0000000000e-04 7.5000000000e-04 -4.6982094141e-19 ) 1.0000005427e+05 2.5441988528e-02 
49               3.0190877159e+02 ( 1.0000000000e-04 9.7500000000e-03 -7.2280144832e-19 ) 1.9994303470e+03 ( 1.0300000000e-02 -2.5000000000e-04 -7.9508159316e-19 ) 1.4409304038e+03 5.2822555799e+02 1.2020279095e-03 ( 4.7000000000e-03 -7.5000000000e-04 0.0000000000e+00 ) 1.7598947317e-01 ( 1.9100000000e-02 -4.2500000000e-03 -4.9324904004e-19 ) 6.4566273035e-02 4.2871516318e-02 1.0000000472e+05 ( 1.6500000000e-02 9.2500000000e-03 -6.5052130349e-19 ) 1.0000009302e+05 ( 1.0000000000e-04 -2.7500000000e-03 -4.6982094141e-19 ) 1.0000004628e+05 1.9061923869e-02 
50               3.0184533679e+02 ( 1.0000000000e-04 9.7500000000e-03 -7.2280144832e-19 ) 1.9993612736e+03 ( 1.0300000000e-02 -2.5000000000e-04 -7.9508159316e-19 ) 1.4362975094e+03 5.2819465266e+02 7.7501547505e-04 ( 4.9000000000e-03 1.7500000000e-03 0.0000000000e+00 ) 1.7554747580e-01 ( 1.9100000000e-02 -4.2500000000e-03 -4.9324904004e-19 ) 6.4475681834e-02 4.2980312837e-02 1.0000000346e+05 ( 1.6300000000e-02 -9.2500000000e-03 -6.5052130349e-19 ) 1.0000010037e+05 ( 1.0000000000e-04 7.5000000000e-04 -4.6982094141e-19 ) 1.0000004321e+05 1.8868012212e-02 
