# Time           	Tmin             	at location      	Tmax             	at location      	Tmean            	TstDev           	Umin             	at location      	Umax             	at location      	Umean            	UstDev           	pmin             	at location      	pmax             	at location      	pmean            	pstDev           
1                4.6168142838e+02 ( 1.0000000000e-04 -2.5000000000e-04 -3.8125678118e-19 ) 1.9393234685e+03 ( 1.1100000000e-02 -2.5000000000e-04 0.0000000000e+00 ) 1.5647352324e+03 4.0967716337e+02 3.4879745315e-03 ( 1.0300000000e-02 2.5000000000e-04 -6.5052130349e-19 ) 3.5159781403e-01 ( 3.0000000000e-04 -9.7500000000e-03 -7.7522553614e-19 ) 9.3193686069e-02 5.5572881490e-02 9.9996551778e+04 ( 1.9900000000e-02 2.5000000000e-04 -6.5052130349e-19 ) 9.9999903027e+04 ( 1.0500000000e-02 -9.7500000000e-03 0.0000000000e+00 ) 9.9998121668e+04 8.8911145064e-01 
2                3.4077862659e+02 ( 1.0000000000e-04 -9.7500000000e-03 -8.4750568097e-19 ) 1.9014115957e+03 ( 1.2100000000e-02 -7.5000000000e-04 0.0000000000e+00 ) 1.3525899245e+03 4.4728345471e+02 3.1475251946e-03 ( 8.7000000000e-03 2.5000000000e-04 0.0000000000e+00 ) 3.2380671258e-01 ( 1.9700000000e-02 -7.2500000000e-03 -7.6251356235e-19 ) 8.8167393938e-02 5.5006534771e-02 1.0000000613e+05 ( 9.7000000000e-03 -9.7500000000e-03 0.0000000000e+00 ) 1.0000675233e+05 ( 1.9900000000e-02 2.5000000000e-04 -6.5052130349e-19 ) 1.0000223026e+05 1.6150524271e+00 
3                3.0987600078e+02 ( 1.0000000000e-04 -9.7500000000e-03 -8.4750568097e-19 ) 1.8863468551e+03 ( 1.2500000000e-02 -2.5000000000e-04 0.0000000000e+00 ) 1.2573129979e+03 4.5323817854e+02 9.2839319946e-04 ( 1.0500000000e-02 2.5000000000e-04 0.0000000000e+00 ) 1.7008392081e-01 ( 1.9700000000e-02 -7.7500000000e-03 -6.5052130349e-19 ) 4.8405560220e-02 4.0304628677e-02 9.9997695577e+04 ( 1.9300000000e-02 2.5000000000e-04 -6.5052130349e-19 ) 1.0000016466e+05 ( 7.7000000000e-03 -8.2500000000e-03 0.0000000000e+00 ) 9.9999489909e+04 6.0463429119e-01 
4                3.0329529227e+02 ( 1.0000000000e-04 -9.7500000000e-03 -8.4750568097e-19 ) 1.7822006298e+03 ( 1.2700000000e-02 2.5000000000e-04 0.0000000000e+00 ) 1.1479210594e+03 4.1785881081e+02 5.5050977729e-04 ( 1.4900000000e-02 -9.7500000000e-03 -7.7522553614e-19 ) 2.1080999645e-01 ( 1.9500000000e-02 7.7500000000e-03 -6.5052130349e-19 ) 5.8249121414e-02 4.8932298026e-02 1.0000001120e+05 ( 1.0700000000e-02 9.7500000000e-03 0.0000000000e+00 ) 1.0000090962e+05 ( 1.9900000000e-02 -2.5000000000e-04 -7.9508159316e-19 ) 1.0000026221e+05 2.0977193512e-01 
5                3.0149280628e+02 ( 1.0000000000e-04 -9.7500000000e-03 -8.4750568097e-19 ) 1.7402308050e+03 ( 1.3100000000e-02 2.5000000000e-04 0.0000000000e+00 ) 1.0961482116e+03 3.9579765188e+02 1.3138497568e-03 ( 9.3000000000e-03 2.5000000000e-04 0.0000000000e+00 ) 2.2179542093e-01 ( 1.9500000000e-02 9.7500000000e-03 -6.5052130349e-19 ) 6.2052712617e-02 4.6749764526e-02 1.0000000573e+05 ( 9.7000000000e-03 9.7500000000e-03 0.0000000000e+00 ) 1.0000031273e+05 ( 1.3300000000e-02 2.5000000000e-04 0.0000000000e+00 ) 1.0000017025e+05 7.6584255457e-02 
6                3.0041456385e+02 ( 1.0000000000e-04 -9.7500000000e-03 -8.4750568097e-19 ) 1.7041874662e+03 ( 1.3300000000e-02 2.5000000000e-04 0.0000000000e+00 ) 1.0720596776e+03 3.6927031670e+02 1.5457470281e-03 ( 9.1000000000e-03 2.5000000000e-04 2.6926452232e-19 ) 2.5611789786e-01 ( 1.9500000000e-02 9.7500000000e-03 -6.5052130349e-19 ) 7.0578013512e-02 4.6737300384e-02 1.0000001762e+05 ( 3.3000000000e-03 9.7500000000e-03 0.0000000000e+00 ) 1.0000035204e+05 ( 1.8700000000e-02 2.5000000000e-04 -3.8125678118e-19 ) 1.0000019153e+05 7.9930475322e-02 
7                2.9957987197e+02 ( 1.0000000000e-04 -9.7500000000e-03 -8.4750568097e-19 ) 1.6839967440e+03 ( 1.3300000000e-02 2.5000000000e-04 0.0000000000e+00 ) 1.0568031933e+03 3.5862829264e+02 1.7239169106e-03 ( 9.1000000000e-03 2.5000000000e-04 2.6926452232e-19 ) 2.7177624850e-01 ( 1.9300000000e-02 9.7500000000e-03 -6.5052130349e-19 ) 7.5322728033e-02 4.6071234924e-02 1.0000000841e+05 ( 4.7000000000e-03 -9.7500000000e-03 0.0000000000e+00 ) 1.0000020695e+05 ( 1.4500000000e-02 2.5000000000e-04 0.0000000000e+00 ) 1.0000012528e+05 5.3227748481e-02 
8                2.9887286987e+02 ( 1.0000000000e-04 -9.7500000000e-03 -8.4750568097e-19 ) 1.6780384684e+03 ( 1.3500000000e-02 2.5000000000e-04 -6.5052130349e-19 ) 1.0440162521e+03 3.5893432723e+02 2.0433525103e-03 ( 8.9000000000e-03 2.5000000000e-04 -6.5052130349e-19 ) 2.8405464252e-01 ( 1.9300000000e-02 9.7500000000e-03 -6.5052130349e-19 ) 8.0193081689e-02 4.6178858985e-02 1.0000000391e+05 ( 7.7000000000e-03 -9.7500000000e-03 0.0000000000e+00 ) 1.0000022840e+05 ( 1.6500000000e-02 2.5000000000e-04 -6.5052130349e-19 ) 1.0000011645e+05 6.0067202679e-02 
9                2.9813745334e+02 ( 1.0000000000e-04 2.5000000000e-04 -4.6982094141e-19 ) 1.6808041157e+03 ( 1.3500000000e-02 2.5000000000e-04 -6.5052130349e-19 ) 1.0324448023e+03 3.6496839687e+02 2.3255692371e-03 ( 8.5000000000e-03 2.5000000000e-04 -2.6926452232e-19 ) 2.9458651864e-01 ( 1.9100000000e-02 9.7500000000e-03 -6.5052130349e-19 ) 8.4579442743e-02 4.6541790118e-02 1.0000000263e+05 ( 7.9000000000e-03 -9.7500000000e-03 0.0000000000e+00 ) 1.0000021498e+05 ( 1.6100000000e-02 2.5000000000e-04 -6.5052130349e-19 ) 1.0000010391e+05 5.7108098226e-02 
10               2.9718599126e+02 ( 1.0000000000e-04 2.5000000000e-04 -4.6982094141e-19 ) 1.6837699822e+03 ( 1.3500000000e-02 2.5000000000e-04 -6.5052130349e-19 ) 1.0206246671e+03 3.7246076645e+02 2.2695964591e-03 ( 8.5000000000e-03 2.5000000000e-04 -2.6926452232e-19 ) 3.0244174401e-01 ( 1.9100000000e-02 9.7500000000e-03 -6.5052130349e-19 ) 8.7908503595e-02 4.6929449532e-02 1.0000000154e+05 ( 9.3000000000e-03 9.7500000000e-03 0.0000000000e+00 ) 1.0000016547e+05 ( 1.6900000000e-02 2.5000000000e-04 -6.5052130349e-19 ) 1.0000007679e+05 4.3123391050e-02 
11               2.9643987656e+02 ( 1.0000000000e-04 2.5000000000e-04 -4.6982094141e-19 ) 1.6843005290e+03 ( 1.3700000000e-02 2.5000000000e-04 0.0000000000e+00 ) 1.0084535456e+03 3.7960322466e+02 2.3957046173e-03 ( 8.5000000000e-03 2.5000000000e-04 -2.6926452232e-19 ) 3.0504427743e-01 ( 1.9100000000e-02 9.7500000000e-03 -6.5052130349e-19 ) 9.0114178225e-02 4.7158066668e-02 1.0000000056e+05 ( 1.0500000000e-02 9.7500000000e-03 0.0000000000e+00 ) 1.0000011447e+05 ( 1.7300000000e-02 -2.5000000000e-04 -5.2581707084e-19 ) 1.0000005134e+05 2.8843064465e-02 
12               2.9584584628e+02 ( 1.0000000000e-04 2.5000000000e-04 -4.6982094141e-19 ) 1.6808234098e+03 ( 1.3700000000e-02 2.5000000000e-04 0.0000000000e+00 ) 9.9606403907e+02 3.8599714288e+02 2.5249501949e-03 ( 8.5000000000e-03 2.5000000000e-04 -2.6926452232e-19 ) 3.0735203868e-01 ( 1.8900000000e-02 9.7500000000e-03 -6.5052130349e-19 ) 9.1698955636e-02 4.7212501466e-02 1.0000000044e+05 ( 1.0500000000e-02 9.7500000000e-03 0.0000000000e+00 ) 1.0000008758e+05 ( 1.7300000000e-02 -2.5000000000e-04 -5.2581707084e-19 ) 1.0000003910e+05 2.1965884710e-02 
13               2.9536914353e+02 ( 1.0000000000e-04 2.5000000000e-04 -4.6982094141e-19 ) 1.6767569613e+03 ( 1.3700000000e-02 2.5000000000e-04 0.0000000000e+00 ) 9.8390451144e+02 3.9196291329e+02 2.5769982793e-03 ( 8.5000000000e-03 2.5000000000e-04 -2.6926452232e-19 ) 3.0947238813e-01 ( 1.8900000000e-02 9.7500000000e-03 -6.5052130349e-19 ) 9.3316206597e-02 4.7271797934e-02 1.0000000109e+05 ( 9.7000000000e-03 9.7500000000e-03 0.0000000000e+00 ) 1.0000009229e+05 ( 1.6900000000e-02 -2.5000000000e-04 -1.0643461155e-18 ) 1.0000004181e+05 2.3874149870e-02 
14               2.9498293801e+02 ( 1.0000000000e-04 2.5000000000e-04 -4.6982094141e-19 ) 1.6752894209e+03 ( 1.3700000000e-02 2.5000000000e-04 0.0000000000e+00 ) 9.7245115335e+02 3.9790904736e+02 2.9299237170e-03 ( 8.5000000000e-03 2.5000000000e-04 -2.6926452232e-19 ) 3.1139421469e-01 ( 1.8900000000e-02 9.7500000000e-03 -6.5052130349e-19 ) 9.5183621469e-02 4.7449090374e-02 1.0000000169e+05 ( 7.7000000000e-03 -9.7500000000e-03 0.0000000000e+00 ) 1.0000010840e+05 ( 1.6100000000e-02 2.5000000000e-04 -6.5052130349e-19 ) 1.0000004871e+05 2.8860035112e-02 
15               2.9466584490e+02 ( 1.0000000000e-04 2.5000000000e-04 -4.6982094141e-19 ) 1.6772342755e+03 ( 1.3700000000e-02 2.5000000000e-04 0.0000000000e+00 ) 9.6190074198e+02 4.0394486622e+02 2.8231411948e-03 ( 8.3000000000e-03 2.5000000000e-04 -6.5052130349e-19 ) 3.1559044701e-01 ( 1.8700000000e-02 9.7500000000e-03 -6.5052130349e-19 ) 9.7209548857e-02 4.7756211069e-02 1.0000000193e+05 ( 7.1000000000e-03 -9.7500000000e-03 0.0000000000e+00 ) 1.0000011894e+05 ( 1.5900000000e-02 2.5000000000e-04 -6.5052130349e-19 ) 1.0000005187e+05 3.1806146320e-02 
16               2.9440488662e+02 ( 1.0000000000e-04 2.5000000000e-04 -4.6982094141e-19 ) 1.6808216934e+03 ( 1.3700000000e-02 2.5000000000e-04 0.0000000000e+00 ) 9.5212054289e+02 4.0984632068e+02 3.1840842261e-03 ( 8.1000000000e-03 2.5000000000e-04 0.0000000000e+00 ) 3.1883669683e-01 ( 1.8700000000e-02 9.7500000000e-03 -6.5052130349e-19 ) 9.9080037708e-02 4.8095927390e-02 1.0000000182e+05 ( 7.5000000000e-03 -9.7500000000e-03 0.0000000000e+00 ) 1.0000011121e+05 ( 1.6500000000e-02 2.5000000000e-04 -6.5052130349e-19 ) 1.0000004720e+05 2.9394540898e-02 
17               2.9418682774e+02 ( 1.9900000000e-02 2.5000000000e-04 -6.5052130349e-19 ) 1.6840721813e+03 ( 1.3700000000e-02 2.5000000000e-04 0.0000000000e+00 ) 9.4286283859e+02 4.1535469963e+02 3.1113947903e-03 ( 8.1000000000e-03 2.5000000000e-04 0.0000000000e+00 ) 3.2010116683e-01 ( 1.8700000000e-02 9.7500000000e-03 -6.5052130349e-19 ) 1.0055122874e-01 4.8341901442e-02 1.0000000150e+05 ( 8.5000000000e-03 9.7500000000e-03 0.0000000000e+00 ) 1.0000009162e+05 ( 1.6900000000e-02 2.5000000000e-04 -6.5052130349e-19 ) 1.0000003787e+05 2.3558761495e-02 
18               2.9394515679e+02 ( 1.9900000000e-02 2.5000000000e-04 -6.5052130349e-19 ) 1.6866180483e+03 ( 1.3700000000e-02 2.5000000000e-04 0.0000000000e+00 ) 9.3402930153e+02 4.2047670047e+02 3.1173156980e-03 ( 8.1000000000e-03 2.5000000000e-04 0.0000000000e+00 ) 3.2199614153e-01 ( 1.8500000000e-02 9.7500000000e-03 -6.5052130349e-19 ) 1.0175750612e-01 4.8505929543e-02 1.0000000136e+05 ( 8.3000000000e-03 9.7500000000e-03 -6.5052130349e-19 ) 1.0000007882e+05 ( 1.6900000000e-02 -2.5000000000e-04 -1.0643461155e-18 ) 1.0000003297e+05 2.0124102126e-02 
19               2.9375533011e+02 ( 1.9900000000e-02 2.5000000000e-04 -6.5052130349e-19 ) 1.6891226066e+03 ( 1.3700000000e-02 2.5000000000e-04 0.0000000000e+00 ) 9.2563755057e+02 4.2530929266e+02 3.1504986475e-03 ( 8.1000000000e-03 2.5000000000e-04 0.0000000000e+00 ) 3.2375480070e-01 ( 1.8500000000e-02 9.7500000000e-03 -6.5052130349e-19 ) 1.0293086122e-01 4.8675111300e-02 1.0000000143e+05 ( 7.9000000000e-03 9.7500000000e-03 0.0000000000e+00 ) 1.0000007772e+05 ( 1.6900000000e-02 -2.5000000000e-04 -1.0643461155e-18 ) 1.0000003307e+05 2.0173044177e-02 
20               2.9360570755e+02 ( 1.9900000000e-02 2.5000000000e-04 -6.5052130349e-19 ) 1.6922342311e+03 ( 1.3700000000e-02 2.5000000000e-04 0.0000000000e+00 ) 9.1777629128e+02 4.2998813325e+02 3.3073088204e-03 ( 8.1000000000e-03 2.5000000000e-04 0.0000000000e+00 ) 3.2518388798e-01 ( 1.8500000000e-02 9.7500000000e-03 -6.5052130349e-19 ) 1.0420341044e-01 4.8913930960e-02 1.0000000156e+05 ( 7.5000000000e-03 -9.7500000000e-03 0.0000000000e+00 ) 1.0000008316e+05 ( 1.6500000000e-02 -2.5000000000e-04 -1.0643461155e-18 ) 1.0000003553e+05 2.2074895258e-02 
21               2.9348726784e+02 ( 1.9900000000e-02 2.5000000000e-04 -6.5052130349e-19 ) 1.6961782988e+03 ( 1.3700000000e-02 2.5000000000e-04 0.0000000000e+00 ) 9.1050888237e+02 4.3459750190e+02 3.4886135351e-03 ( 7.9000000000e-03 2.5000000000e-04 0.0000000000e+00 ) 3.2763422682e-01 ( 1.8300000000e-02 9.7500000000e-03 -6.5052130349e-19 ) 1.0555180100e-01 4.9215615690e-02 1.0000000164e+05 ( 7.5000000000e-03 -9.7500000000e-03 0.0000000000e+00 ) 1.0000008737e+05 ( 1.6500000000e-02 2.5000000000e-04 -6.5052130349e-19 ) 1.0000003713e+05 2.3408584370e-02 
22               2.9339323547e+02 ( 1.9900000000e-02 2.5000000000e-04 -6.5052130349e-19 ) 1.7008098887e+03 ( 1.3700000000e-02 2.5000000000e-04 0.0000000000e+00 ) 9.0382049364e+02 4.3913865459e+02 3.3906922929e-03 ( 7.9000000000e-03 2.5000000000e-04 0.0000000000e+00 ) 3.3032483482e-01 ( 1.8300000000e-02 9.7500000000e-03 -6.5052130349e-19 ) 1.0687601835e-01 4.9536759401e-02 1.0000000163e+05 ( 7.5000000000e-03 -9.7500000000e-03 0.0000000000e+00 ) 1.0000008642e+05 ( 1.6500000000e-02 2.5000000000e-04 -6.5052130349e-19 ) 1.0000003639e+05 2.3070915469e-02 
23               2.9331839942e+02 ( 1.9900000000e-02 2.5000000000e-04 -6.5052130349e-19 ) 1.7055741440e+03 ( 1.3700000000e-02 2.5000000000e-04 0.0000000000e+00 ) 8.9763115563e+02 4.4355003421e+02 3.4557566975e-03 ( 7.9000000000e-03 2.5000000000e-04 0.0000000000e+00 ) 3.3210580361e-01 ( 1.8300000000e-02 9.7500000000e-03 -6.5052130349e-19 ) 1.0808673744e-01 4.9831293650e-02 1.0000000155e+05 ( 7.7000000000e-03 9.7500000000e-03 0.0000000000e+00 ) 1.0000008111e+05 ( 1.6700000000e-02 2.5000000000e-04 -6.5052130349e-19 ) 1.0000003378e+05 2.1438747840e-02 
24               2.9325860959e+02 ( 1.9900000000e-02 2.5000000000e-04 -6.5052130349e-19 ) 1.7100487112e+03 ( 1.3700000000e-02 2.5000000000e-04 0.0000000000e+00 ) 8.9184196092e+02 4.4777453315e+02 3.5877683169e-03 ( 7.9000000000e-03 2.5000000000e-04 0.0000000000e+00 ) 3.3363017825e-01 ( 1.8100000000e-02 -9.7500000000e-03 -7.7522553614e-19 ) 1.0916199513e-01 5.0078800900e-02 1.0000000145e+05 ( 8.1000000000e-03 -9.7500000000e-03 0.0000000000e+00 ) 1.0000007474e+05 ( 1.6900000000e-02 -2.5000000000e-04 -1.0643461155e-18 ) 1.0000003093e+05 1.9590180194e-02 
25               2.9321065231e+02 ( 1.9900000000e-02 2.5000000000e-04 -6.5052130349e-19 ) 1.7144629275e+03 ( 1.3700000000e-02 2.5000000000e-04 0.0000000000e+00 ) 8.8639499583e+02 4.5180309650e+02 3.7603026298e-03 ( 7.9000000000e-03 2.5000000000e-04 0.0000000000e+00 ) 3.3561761938e-01 ( 1.8100000000e-02 -9.7500000000e-03 -7.7522553614e-19 ) 1.1015422662e-01 5.0295337783e-02 1.0000000141e+05 ( 8.1000000000e-03 9.7500000000e-03 0.0000000000e+00 ) 1.0000007071e+05 ( 1.6900000000e-02 -2.5000000000e-04 -1.0643461155e-18 ) 1.0000002947e+05 1.8580448862e-02 
26               2.9317206874e+02 ( 1.9900000000e-02 2.5000000000e-04 -6.5052130349e-19 ) 1.7192924290e+03 ( 1.3700000000e-02 2.5000000000e-04 0.0000000000e+00 ) 8.8128374013e+02 4.5566979957e+02 3.8253614220e-03 ( 7.7000000000e-03 2.5000000000e-04 0.0000000000e+00 ) 3.3710905845e-01 ( 1.8100000000e-02 -9.7500000000e-03 -7.7522553614e-19 ) 1.1114038349e-01 5.0511091953e-02 1.0000000143e+05 ( 8.1000000000e-03 -9.7500000000e-03 0.0000000000e+00 ) 1.0000007061e+05 ( 1.6700000000e-02 -2.5000000000e-04 -5.2581707084e-19 ) 1.0000002956e+05 1.8710966532e-02 
27               2.9314095063e+02 ( 1.9900000000e-02 2.5000000000e-04 -6.5052130349e-19 ) 1.7248206331e+03 ( 1.3700000000e-02 2.5000000000e-04 0.0000000000e+00 ) 8.7653480149e+02 4.5943488434e+02 3.7386818593e-03 ( 7.7000000000e-03 2.5000000000e-04 0.0000000000e+00 ) 3.3823425214e-01 ( 1.8100000000e-02 -9.7500000000e-03 -7.7522553614e-19 ) 1.1216029017e-01 5.0750092484e-02 1.0000000148e+05 ( 7.9000000000e-03 -9.7500000000e-03 0.0000000000e+00 ) 1.0000007253e+05 ( 1.6500000000e-02 2.5000000000e-04 -6.5052130349e-19 ) 1.0000003045e+05 1.9367920438e-02 
28               2.9311578712e+02 ( 1.9900000000e-02 2.5000000000e-04 -6.5052130349e-19 ) 1.7304978975e+03 ( 1.3700000000e-02 2.5000000000e-04 0.0000000000e+00 ) 8.7216469079e+02 4.6312422902e+02 3.7413951752e-03 ( 7.7000000000e-03 2.5000000000e-04 0.0000000000e+00 ) 3.4071651108e-01 ( 1.7900000000e-02 -9.7500000000e-03 -7.7522553614e-19 ) 1.1321123364e-01 5.1022658632e-02 1.0000000152e+05 ( 7.9000000000e-03 -9.7500000000e-03 0.0000000000e+00 ) 1.0000007447e+05 ( 1.6500000000e-02 2.5000000000e-04 -6.5052130349e-19 ) 1.0000003107e+05 1.9887768994e-02 
29               2.9309539074e+02 ( 1.9900000000e-02 2.5000000000e-04 -6.5052130349e-19 ) 1.7365868798e+03 ( 1.3700000000e-02 2.5000000000e-04 0.0000000000e+00 ) 8.6815012166e+02 4.6673836805e+02 3.8377799697e-03 ( 7.7000000000e-03 2.5000000000e-04 0.0000000000e+00 ) 3.4258744280e-01 ( 1.7900000000e-02 -9.7500000000e-03 -7.7522553614e-19 ) 1.1421508057e-01 5.1277498569e-02 1.0000000151e+05 ( 7.9000000000e-03 9.7500000000e-03 0.0000000000e+00 ) 1.0000007210e+05 ( 1.6500000000e-02 2.5000000000e-04 -6.5052130349e-19 ) 1.0000003023e+05 1.9178724433e-02 
30               2.9307881558e+02 ( 1.9900000000e-02 2.5000000000e-04 -6.5052130349e-19 ) 1.7426716746e+03 ( 1.3700000000e-02 2.5000000000e-04 0.0000000000e+00 ) 8.6445722692e+02 4.7026273621e+02 4.0029648640e-03 ( 7.7000000000e-03 2.5000000000e-04 0.0000000000e+00 ) 3.4398851459e-01 ( 1.7900000000e-02 -9.7500000000e-03 -7.7522553614e-19 ) 1.1518986426e-01 5.1532176621e-02 1.0000000150e+05 ( 8.1000000000e-03 9.7500000000e-03 0.0000000000e+00 ) 1.0000007100e+05 ( 1.6700000000e-02 -2.5000000000e-04 -5.2581707084e-19 ) 1.0000002964e+05 1.8871967538e-02 
31               2.9306531255e+02 ( 1.9900000000e-02 2.5000000000e-04 -6.5052130349e-19 ) 1.7471813755e+03 ( 1.3700000000e-02 2.5000000000e-04 0.0000000000e+00 ) 8.6103252902e+02 4.7365471998e+02 4.1760998596e-03 ( 7.7000000000e-03 2.5000000000e-04 0.0000000000e+00 ) 3.4545311723e-01 ( 1.7700000000e-02 -9.7500000000e-03 -7.7522553614e-19 ) 1.1608286360e-01 5.1762150978e-02 1.0000000144e+05 ( 8.1000000000e-03 9.7500000000e-03 0.0000000000e+00 ) 1.0000006725e+05 ( 1.6900000000e-02 -2.5000000000e-04 -1.0643461155e-18 ) 1.0000002794e+05 1.7725993428e-02 
32               2.9305427708e+02 ( 1.9900000000e-02 2.5000000000e-04 -6.5052130349e-19 ) 1.7512364797e+03 ( 1.3700000000e-02 2.5000000000e-04 0.0000000000e+00 ) 8.5782814342e+02 4.7690237347e+02 4.2037170656e-03 ( 7.5000000000e-03 2.5000000000e-04 2.6926452232e-19 ) 3.4709481590e-01 ( 1.7700000000e-02 -9.7500000000e-03 -7.7522553614e-19 ) 1.1690846263e-01 5.1958037334e-02 1.0000000140e+05 ( 8.3000000000e-03 9.7500000000e-03 -6.5052130349e-19 ) 1.0000006393e+05 ( 1.6900000000e-02 -2.5000000000e-04 -1.0643461155e-18 ) 1.0000002670e+05 1.6860033680e-02 
33               2.9304523174e+02 ( 1.9900000000e-02 2.5000000000e-04 -6.5052130349e-19 ) 1.7564656197e+03 ( 1.3700000000e-02 2.5000000000e-04 0.0000000000e+00 ) 8.5485585429e+02 4.8006123000e+02 4.1332788292e-03 ( 7.5000000000e-03 2.5000000000e-04 2.6926452232e-19 ) 3.4845506522e-01 ( 1.7700000000e-02 -9.7500000000e-03 -7.7522553614e-19 ) 1.1775832314e-01 5.2157200838e-02 1.0000000145e+05 ( 8.3000000000e-03 -9.7500000000e-03 -7.7522553614e-19 ) 1.0000006510e+05 ( 1.6500000000e-02 2.5000000000e-04 -6.5052130349e-19 ) 1.0000002752e+05 1.7394705157e-02 
34               2.9303780211e+02 ( 1.9900000000e-02 2.5000000000e-04 -6.5052130349e-19 ) 1.7620730400e+03 ( 1.3700000000e-02 2.5000000000e-04 0.0000000000e+00 ) 8.5216252387e+02 4.8319291319e+02 4.0980367956e-03 ( 7.5000000000e-03 2.5000000000e-04 2.6926452232e-19 ) 3.4972257300e-01 ( 1.7700000000e-02 -9.7500000000e-03 -7.7522553614e-19 ) 1.1868224077e-01 5.2403379699e-02 1.0000000153e+05 ( 8.1000000000e-03 -9.7500000000e-03 0.0000000000e+00 ) 1.0000006917e+05 ( 1.6300000000e-02 2.5000000000e-04 -9.1978582581e-19 ) 1.0000002927e+05 1.8590282417e-02 
35               2.9303168828e+02 ( 1.9900000000e-02 2.5000000000e-04 -6.5052130349e-19 ) 1.7663994070e+03 ( 1.3700000000e-02 2.5000000000e-04 0.0000000000e+00 ) 8.4974603858e+02 4.8627937620e+02 4.1390734177e-03 ( 7.5000000000e-03 2.5000000000e-04 2.6926452232e-19 ) 3.5161510476e-01 ( 1.7500000000e-02 -9.7500000000e-03 -7.7522553614e-19 ) 1.1959536630e-01 5.2671604764e-02 1.0000000154e+05 ( 8.1000000000e-03 9.7500000000e-03 0.0000000000e+00 ) 1.0000006889e+05 ( 1.6500000000e-02 2.5000000000e-04 -6.5052130349e-19 ) 1.0000002897e+05 1.8347954809e-02 
36               2.9302664315e+02 ( 1.9900000000e-02 2.5000000000e-04 -6.5052130349e-19 ) 1.7694131612e+03 ( 1.3700000000e-02 1.7500000000e-03 0.0000000000e+00 ) 8.4753353625e+02 4.8925032748e+02 4.2038209420e-03 ( 7.5000000000e-03 2.5000000000e-04 2.6926452232e-19 ) 3.5314500306e-01 ( 1.7500000000e-02 -9.7500000000e-03 -7.7522553614e-19 ) 1.2038874403e-01 5.2897193222e-02 1.0000000146e+05 ( 8.3000000000e-03 9.7500000000e-03 -6.5052130349e-19 ) 1.0000006318e+05 ( 1.6900000000e-02 -2.5000000000e-04 -1.0643461155e-18 ) 1.0000002643e+05 1.6567261097e-02 
37               2.9302246548e+02 ( 1.9900000000e-02 2.5000000000e-04 -6.5052130349e-19 ) 1.7728736894e+03 ( 1.3700000000e-02 2.2500000000e-03 0.0000000000e+00 ) 8.4544511296e+02 4.9206381346e+02 4.2568632250e-03 ( 7.5000000000e-03 2.5000000000e-04 2.6926452232e-19 ) 3.5398510767e-01 ( 1.7500000000e-02 -9.7500000000e-03 -7.7522553614e-19 ) 1.2105318908e-01 5.3055474442e-02 1.0000000136e+05 ( 8.5000000000e-03 9.7500000000e-03 0.0000000000e+00 ) 1.0000005691e+05 ( 1.7100000000e-02 -2.5000000000e-04 -7.9508159316e-19 ) 1.0000002391e+05 1.4816195405e-02 
38               2.9301899531e+02 ( 1.9900000000e-02 2.5000000000e-04 -6.5052130349e-19 ) 1.7766177827e+03 ( 1.3700000000e-02 2.7500000000e-03 0.0000000000e+00 ) 8.4345280055e+02 4.9473503765e+02 4.3126073928e-03 ( 7.5000000000e-03 2.5000000000e-04 2.6926452232e-19 ) 3.5437037095e-01 ( 1.7500000000e-02 -9.7500000000e-03 -7.7522553614e-19 ) 1.2166434290e-01 5.3181031669e-02 1.0000000134e+05 ( 8.5000000000e-03 -9.7500000000e-03 0.0000000000e+00 ) 1.0000005414e+05 ( 1.7100000000e-02 -2.5000000000e-04 -7.9508159316e-19 ) 1.0000002312e+05 1.4160043410e-02 
39               2.9301610489e+02 ( 1.9900000000e-02 2.5000000000e-04 -6.5052130349e-19 ) 1.7809853969e+03 ( 1.3500000000e-02 2.5000000000e-04 -6.5052130349e-19 ) 8.4159253380e+02 4.9732420167e+02 4.4068698356e-03 ( 7.5000000000e-03 2.5000000000e-04 2.6926452232e-19 ) 3.5558640781e-01 ( 1.7300000000e-02 -9.7500000000e-03 -7.7522553614e-19 ) 1.2233303011e-01 5.3328005962e-02 1.0000000142e+05 ( 8.5000000000e-03 9.7500000000e-03 0.0000000000e+00 ) 1.0000005650e+05 ( 1.6700000000e-02 2.5000000000e-04 -6.5052130349e-19 ) 1.0000002462e+05 1.4954694385e-02 
40               2.9301369216e+02 ( 1.9900000000e-02 2.5000000000e-04 -6.5052130349e-19 ) 1.7881449888e+03 ( 1.3500000000e-02 2.5000000000e-04 -6.5052130349e-19 ) 8.3991010122e+02 4.9989522102e+02 4.5830742654e-03 ( 7.5000000000e-03 2.5000000000e-04 2.6926452232e-19 ) 3.5694989287e-01 ( 1.7300000000e-02 -9.7500000000e-03 -7.7522553614e-19 ) 1.2307883055e-01 5.3516135875e-02 1.0000000141e+05 ( 1.0000000000e-04 -9.7500000000e-03 -8.4750568097e-19 ) 1.0000006131e+05 ( 1.6100000000e-02 2.5000000000e-04 -6.5052130349e-19 ) 1.0000002636e+05 1.6500134048e-02 
41               2.9301167400e+02 ( 1.9900000000e-02 2.5000000000e-04 -6.5052130349e-19 ) 1.7970569665e+03 ( 1.3500000000e-02 2.5000000000e-04 -6.5052130349e-19 ) 8.3844514483e+02 5.0246636780e+02 4.7049924922e-03 ( 7.3000000000e-03 2.5000000000e-04 0.0000000000e+00 ) 3.5825900501e-01 ( 1.7300000000e-02 -9.7500000000e-03 -7.7522553614e-19 ) 1.2389757539e-01 5.3746671953e-02 1.0000000146e+05 ( 1.0000000000e-04 -9.7500000000e-03 -8.4750568097e-19 ) 1.0000006493e+05 ( 1.5900000000e-02 2.5000000000e-04 -6.5052130349e-19 ) 1.0000002793e+05 1.7396624816e-02 
42               2.9300998267e+02 ( 1.9900000000e-02 2.5000000000e-04 -6.5052130349e-19 ) 1.8065540416e+03 ( 1.3500000000e-02 2.5000000000e-04 -6.5052130349e-19 ) 8.3718560844e+02 5.0501679669e+02 4.6200393396e-03 ( 7.3000000000e-03 2.5000000000e-04 0.0000000000e+00 ) 3.5930248219e-01 ( 1.7300000000e-02 -9.7500000000e-03 -7.7522553614e-19 ) 1.2472041778e-01 5.3985113215e-02 1.0000000145e+05 ( 1.0000000000e-04 -9.7500000000e-03 -8.4750568097e-19 ) 1.0000006531e+05 ( 1.5900000000e-02 2.5000000000e-04 -6.5052130349e-19 ) 1.0000002795e+05 1.7409736025e-02 
43               2.9300856245e+02 ( 1.9900000000e-02 2.5000000000e-04 -6.5052130349e-19 ) 1.8140927009e+03 ( 1.3500000000e-02 2.5000000000e-04 -6.5052130349e-19 ) 8.3610119918e+02 5.0752849521e+02 4.5980418729e-03 ( 7.3000000000e-03 2.5000000000e-04 0.0000000000e+00 ) 3.6065024621e-01 ( 1.7100000000e-02 -9.7500000000e-03 -7.7522553614e-19 ) 1.2550168572e-01 5.4221146655e-02 1.0000000143e+05 ( 1.0000000000e-04 -9.7500000000e-03 -8.4750568097e-19 ) 1.0000006327e+05 ( 1.6300000000e-02 2.5000000000e-04 -9.1978582581e-19 ) 1.0000002722e+05 1.6766214418e-02 
44               2.9300736732e+02 ( 1.9900000000e-02 2.5000000000e-04 -6.5052130349e-19 ) 1.8192097363e+03 ( 1.3500000000e-02 2.5000000000e-04 -6.5052130349e-19 ) 8.3513698029e+02 5.0994789245e+02 4.6183156523e-03 ( 7.3000000000e-03 2.5000000000e-04 0.0000000000e+00 ) 3.6183552522e-01 ( 1.7100000000e-02 -9.7500000000e-03 -7.7522553614e-19 ) 1.2618856042e-01 5.4426472528e-02 1.0000000138e+05 ( 1.0000000000e-04 -9.7500000000e-03 -8.4750568097e-19 ) 1.0000005883e+05 ( 1.6700000000e-02 -2.5000000000e-04 -5.2581707084e-19 ) 1.0000002528e+05 1.5417296649e-02 
45               2.9300635823e+02 ( 1.9900000000e-02 2.5000000000e-04 -6.5052130349e-19 ) 1.8224810487e+03 ( 1.3500000000e-02 7.5000000000e-04 -6.5052130349e-19 ) 8.3421044753e+02 5.1220610984e+02 4.6563318401e-03 ( 7.3000000000e-03 2.5000000000e-04 0.0000000000e+00 ) 3.6240270420e-01 ( 1.7100000000e-02 -9.7500000000e-03 -7.7522553614e-19 ) 1.2674313589e-01 5.4562167495e-02 1.0000000131e+05 ( 1.0000000000e-04 9.7500000000e-03 -7.2280144832e-19 ) 1.0000005272e+05 ( 1.7100000000e-02 -2.5000000000e-04 -7.9508159316e-19 ) 1.0000002244e+05 1.3653328953e-02 
46               2.9300550313e+02 ( 1.9900000000e-02 2.5000000000e-04 -6.5052130349e-19 ) 1.8257471875e+03 ( 1.3500000000e-02 1.7500000000e-03 -6.5052130349e-19 ) 8.3329493774e+02 5.1433043717e+02 4.6907995337e-03 ( 7.3000000000e-03 2.5000000000e-04 0.0000000000e+00 ) 3.6260726289e-01 ( 1.7100000000e-02 -9.7500000000e-03 -7.7522553614e-19 ) 1.2725872774e-01 5.4663365206e-02 1.0000000128e+05 ( 1.0000000000e-04 -9.7500000000e-03 -8.4750568097e-19 ) 1.0000005044e+05 ( 1.6900000000e-02 -2.5000000000e-04 -1.0643461155e-18 ) 1.0000002201e+05 1.3223425150e-02 
47               2.9300477748e+02 ( 1.9900000000e-02 2.5000000000e-04 -6.5052130349e-19 ) 1.8293802570e+03 ( 1.3500000000e-02 2.2500000000e-03 -6.5052130349e-19 ) 8.3243861941e+02 5.1639149072e+02 4.7229558441e-03 ( 7.3000000000e-03 2.5000000000e-04 0.0000000000e+00 ) 3.6294388545e-01 ( 1.6900000000e-02 -9.7500000000e-03 -7.7522553614e-19 ) 1.2781901163e-01 5.4799642770e-02 1.0000000129e+05 ( 1.0000000000e-04 -9.7500000000e-03 -8.4750568097e-19 ) 1.0000005252e+05 ( 1.6700000000e-02 2.5000000000e-04 -6.5052130349e-19 ) 1.0000002332e+05 1.3896897057e-02 
48               2.9300416001e+02 ( 1.9900000000e-02 2.5000000000e-04 -6.5052130349e-19 ) 1.8330367832e+03 ( 1.3500000000e-02 -2.2500000000e-03 -6.5052130349e-19 ) 8.3168215588e+02 5.1842167103e+02 4.7644345119e-03 ( 7.3000000000e-03 2.5000000000e-04 0.0000000000e+00 ) 3.6396694950e-01 ( 1.6900000000e-02 -9.7500000000e-03 -7.7522553614e-19 ) 1.2841648337e-01 5.4982519056e-02 1.0000000130e+05 ( 1.0000000000e-04 -9.7500000000e-03 -8.4750568097e-19 ) 1.0000005455e+05 ( 1.6500000000e-02 2.5000000000e-04 -6.5052130349e-19 ) 1.0000002426e+05 1.4392723482e-02 
49               2.9300363221e+02 ( 1.9900000000e-02 2.5000000000e-04 -6.5052130349e-19 ) 1.8369109970e+03 ( 1.3500000000e-02 2.7500000000e-03 -6.5052130349e-19 ) 8.3099159800e+02 5.2036336153e+02 4.8054786515e-03 ( 7.3000000000e-03 2.5000000000e-04 0.0000000000e+00 ) 3.6467041023e-01 ( 1.6900000000e-02 -9.7500000000e-03 -7.7522553614e-19 ) 1.2894769167e-01 5.5149109258e-02 1.0000000128e+05 ( 1.0000000000e-04 -9.7500000000e-03 -8.4750568097e-19 ) 1.0000005159e+05 ( 1.6900000000e-02 2.5000000000e-04 -6.5052130349e-19 ) 1.0000002272e+05 1.3381411918e-02 
50               2.9300317868e+02 ( 1.9900000000e-02 2.5000000000e-04 -6.5052130349e-19 ) 1.8402337051e+03 ( 1.3500000000e-02 3.2500000000e-03 -6.5052130349e-19 ) 8.3029782349e+02 5.2216719307e+02 4.8393001813e-03 ( 7.3000000000e-03 2.5000000000e-04 0.0000000000e+00 ) 3.6484336728e-01 ( 1.6900000000e-02 -9.7500000000e-03 -7.7522553614e-19 ) 1.2937263305e-01 5.5248437947e-02 1.0000000123e+05 ( 1.0000000000e-04 9.7500000000e-03 -7.2280144832e-19 ) 1.0000004627e+05 ( 1.7100000000e-02 -2.5000000000e-04 -7.9508159316e-19 ) 1.0000002051e+05 1.1918560621e-02 
