# Field minima and maxima
# Time         	field          	min            	location(min)  	max            	location(max)  
0.0005         	p              	0.00000000e+00	( 8.00000000e-01 3.40754447e-03 -1.00000000e-02 )	2.82775511e+03	( 7.15482203e-04 2.50746249e-01 -1.00000000e-02 )
