# Time           	U.airmin         	at location      	U.airmax         	at location      	U.airmean        	U.airstDev       	pmin             	at location      	pmax             	at location      	pmean            	pstDev           	T.airmin         	at location      	T.airmax         	at location      	T.airmean        	T.airstDev       
0.00543562       5.5912646724e-04 ( -5.2121563731e-02 -8.3818293063e-02 5.0000000000e-03 ) 7.2444182623e-01 ( -4.3715055960e-02 1.4310829116e-03 5.0000000000e-03 ) 1.6451207067e-01 1.9118528999e-01 -5.6422168852e+02 ( -4.8708483571e-02 1.5945508240e-03 5.0000000000e-03 ) 1.7376808860e+02 ( 1.4310828333e-03 -4.3715055960e-02 5.0000000000e-03 ) -9.2313470544e+01 4.8647309632e+01 2.9995938349e+02 ( -8.3818292782e-02 5.2121564178e-02 5.0000000000e-03 ) 3.0003765526e+02 ( 7.2039335306e-02 6.7472200394e-02 5.0000000000e-03 ) 2.9999983144e+02 1.1689699486e-02 
