# Time           	Umin             	at location      	Umax             	at location      	Umean            	UstDev           	pmin             	at location      	pmax             	at location      	pmean            	pstDev           
5                6.7440874117e-01 ( 4.0000000000e+00 -6.4000000000e+01 2.9829593285e-01 ) 1.2136962923e+01 ( 4.0004147019e+00 -7.2000000000e+01 3.8056572575e+02 ) 8.7764865090e+00 7.9309988017e-01 -1.8584963916e+01 ( 4.0002907629e+00 1.4399970924e+02 3.3030786876e+02 ) 1.6736487277e+01 ( 4.0005688638e+00 1.4399943113e+02 2.6785945787e+02 ) -3.0251139018e-01 1.2170549512e+00 
