# Time           	U.airmin         	at location      	U.airmax         	at location      	U.airmean        	U.airstDev       	pmin             	at location      	pmax             	at location      	pmean            	pstDev           	T.airmin         	at location      	T.airmax         	at location      	T.airmean        	T.airstDev       
0.0116794        1.1645653068e-03 ( 3.0099980500e-01 5.7761903525e-01 7.3000000000e-03 ) 7.6666643260e-01 ( 2.9499993500e-01 5.4379924760e-02 7.3000000000e-03 ) 7.1911561881e-02 5.1443502302e-02 -3.1681944384e+00 ( 6.3478260850e-03 2.8409465620e-01 7.3000000000e-03 ) 1.1753837950e+04 ( 6.3478260850e-03 2.9999350000e-03 7.3000000000e-03 ) 2.8969481353e+02 1.1696677842e+03 3.0000000000e+02 ( 6.3478260850e-03 2.9999350000e-03 7.3000000000e-03 ) 3.0000000000e+02 ( 6.3478260850e-03 2.9999350000e-03 7.3000000000e-03 ) 3.0000000000e+02 2.9558577808e-12 
