# Time           	U.airmin         	at location      	U.airmax         	at location      	U.airmean        	U.airstDev       	pmin             	at location      	pmax             	at location      	pmean            	pstDev           	T.airmin         	at location      	T.airmax         	at location      	T.airmean        	T.airstDev       
0.0116794        5.9640126803e-04 ( 2.8565217390e-01 5.7761903525e-01 7.3000000000e-03 ) 4.8281645272e-01 ( 2.9499993500e-01 5.4379924760e-02 7.3000000000e-03 ) 3.6414949355e-02 3.7961437344e-02 -6.3733388517e+01 ( 2.6026086960e-01 2.0752307905e-01 7.3000000000e-03 ) 1.1587599198e+04 ( 6.3478260850e-03 2.9999350000e-03 7.3000000000e-03 ) 2.5419332885e+02 1.1215150046e+03 3.0000000000e+02 ( 6.3478260850e-03 2.9999350000e-03 7.3000000000e-03 ) 3.0000000000e+02 ( 6.3478260850e-03 2.9999350000e-03 7.3000000000e-03 ) 3.0000000000e+02 2.9558577808e-12 
