# Time       	massFlux     	CH4min       	CH4max       	CH4mean      	CH4stDev     
0.00120482 -0.649017 0.5 0.5 0.5 0
0.00265769 -0.65068 0.5 0.5 0.5 0
0.00439595 -0.65112 0.5 0.5 0.5 0
0.00647429 -0.651023 0.5 0.5 0.5 0
0.0089355 -0.65092 0.5 0.5 0.5 0
