# Time                 	nuTildamin             	at location            	nuTildamax             	at location            	nuTildamean            	nuTildastDev           	pmin                   	at location            	pmax                   	at location            	pmean                  	pstDev                 	Umin                   	at location            	Umax                   	at location            	Umean                  	UstDev                 
0.001                  5.5320793966596670e-05 ( -1.0455388754481671e+00 5.9603127021427959e-03 1.7093722653395207e-01 ) 5.4189739330790472e-02 ( 2.1090952183599088e+00 -3.9181635455209367e-17 6.2355978938659753e-02 ) 5.4858904831458664e-03 6.8954531718890474e-03 -1.7548043878416893e+03 ( -8.4529086410240062e-01 -1.7828419339599835e-01 1.5707785511426969e-02 ) 6.7060572841934732e+02 ( -1.0455388754481671e+00 5.9603127021427959e-03 1.7093722653395207e-01 ) -5.9379082874854143e+00 3.0262522440926784e+01 2.5179203320419979e-01 ( 1.2859559878564296e-03 -1.8645308019614771e-02 9.6532838975997098e-02 ) 6.7557137995826068e+01 ( -5.7329271984564384e-03 -1.9517113071034975e-01 5.6181066552767493e-02 ) 3.5942314361378401e+01 1.6367630493037173e+00 
