# Wall shear stress
# Time           	patch            	min              	max              
10               	inclinedProlateSpheroid	( -1.6811310315e+00 -1.1071166968e+00 -6.3599280581e+00 )	( 5.3288020721e+00 1.6676353426e+01 5.5371050548e+00 )
