/*--------------------------------*- C++ -*----------------------------------*\
|       o        |                                                            |
|    o     o     |  HELYX (R) : Open-source CFD for Enterprise                |
|   o   O   o    |  Version : 4.4.0                                           |
|    o     o     |  ENGYS Ltd. <http://engys.com/>                            |
|       o        |                                                            |
\*---------------------------------------------------------------------------*/
FoamFile
{
    version     2.0;
    format      ascii;
    class       volScalarField;
    location    "-180";
    object      ft;
}
// * * * * * * * * * * * * * * * * * * * * * * * * * * * * * * * * * * * * * //


dimensions      [0 0 0 0 0 0 0];

internalField   uniform 0.0623;

boundaryField
{
    piston
    {
        type            zeroGradient;
    }

    liner
    {
        type            zeroGradient;
    }

    cylinderHead
    {
        type            zeroGradient;
    }
}


// ************************************************************************* //
