# Fractional effective dose (average)
# Time           	FED (incapacitation)	FED (CO)         	HV_CO2           	FED (O2)         
10               	3.6371095431e-05	1.2037987647e-06	1.0414137291e+00	3.5117442870e-05
20               	8.7697435965e-05	1.6672135053e-05	1.0432215529e+00	7.0304705344e-05
25               	1.3041325598e-04	4.0615430363e-05	1.0452113193e+00	8.7961548421e-05
