# Region type :  patch inlet
# Faces          : 160
# Area           : 5.2350532518e-04
# Scale factor   : 1.0000000000e+00
# Time           	sum(phi)
0.0499144        	-2.3613190841e-05
