# Time             	Tmin               	at location        	Tmax               	at location        	Tmean              	TstDev             	Umin               	at location        	Umax               	at location        	Umean              	UstDev             	pmin               	at location        	pmax               	at location        	pmean              	pstDev             
1.5                2.967825741113e+02 ( -1.453125000000e-01 2.210080645161e+00 -1.250000000000e-02 ) 2.238397437687e+03 ( 4.687500000000e-03 7.620967741935e-02 3.750000000000e-02 ) 3.545390796591e+02 1.581217381403e+02 8.372457985595e-03 ( -9.375000000000e-03 3.912096774194e+00 -1.750000000000e-01 ) 5.038027448076e+00 ( 9.843750000000e-02 8.383064516129e-01 -2.625000000000e-01 ) 7.563849900661e-01 8.973254569502e-01 -4.810667549661e+01 ( -1.406250000000e-01 4.183064516129e+00 -2.500000000000e-02 ) -1.867229832441e-01 ( -1.031250000000e-01 1.693548387097e-02 -5.750000000000e-01 ) -2.388018967632e+01 1.371513762075e+01 
