# Time           	Tmin             	at location      	Tmax             	at location      	Tmean            	TstDev           	Umin             	at location      	Umax             	at location      	Umean            	UstDev           	pmin             	at location      	pmax             	at location      	pmean            	pstDev           
1                2.9200000000e+02 ( 6.6603214772e-04 0.0000000000e+00 6.3779279747e-01 ) 2.1996191372e+03 ( 1.0001096792e-02 5.5676297742e-20 3.6843148923e-02 ) 2.9289968703e+02 4.1051987708e+01 1.3308981671e-01 ( 5.5986916746e-03 -2.3361335083e-20 -1.6579630872e-02 ) 3.1195119089e+01 ( 2.5309221613e-03 -7.0147168444e-21 -1.0444512967e-02 ) 3.0318281334e-01 1.2235225656e-01 1.0132499991e+05 ( 3.4306935256e-02 -4.3519705249e-19 6.1780362334e-01 ) 1.0865654040e+05 ( 6.6603214772e-04 -1.5597108617e-21 -1.6579630872e-02 ) 1.0132594150e+05 1.7368935303e+01 
2                2.9200000000e+02 ( 6.6603214772e-04 0.0000000000e+00 6.3779279747e-01 ) 2.1996198588e+03 ( 7.7290215621e-03 -1.9380505053e-20 2.3631313623e-02 ) 2.9289722000e+02 4.0922604690e+01 1.1976325732e-01 ( 5.5986916746e-03 -2.3361335083e-20 -1.6579630872e-02 ) 3.7383890254e+01 ( 3.5204556380e-03 -2.0109829836e-20 -1.0444512967e-02 ) 3.0334768415e-01 1.2516393994e-01 1.0109702105e+05 ( 2.5309221613e-03 -3.1308847458e-21 4.4023419292e-02 ) 1.1765778300e+05 ( 3.5204556380e-03 -1.6116387380e-20 -1.6579630872e-02 ) 1.0132626247e+05 3.1651557498e+01 
3                2.9168465091e+02 ( 1.5540750114e-03 2.0426391238e-21 1.2484264335e-03 ) 2.1998372780e+03 ( 1.2421000016e-02 -4.0414439069e-20 1.4646977850e-02 ) 2.9289393898e+02 4.0761697356e+01 5.1410185500e-02 ( 6.6603214772e-04 -1.1858461262e-21 5.1616046234e-02 ) 4.4321818840e+01 ( 3.5204556380e-03 -2.0109829836e-20 -1.0444512967e-02 ) 3.0401628686e-01 1.3393987141e-01 1.0051742114e+05 ( 2.5309221613e-03 -2.2713272053e-21 6.3845233955e-03 ) 1.1895812191e+05 ( 3.5204556380e-03 -1.6116387380e-20 -1.6579630872e-02 ) 1.0132659096e+05 3.5900524962e+01 
4                2.9170490992e+02 ( 4.2508522369e-03 3.9825637279e-21 1.2484264335e-03 ) 2.1994836005e+03 ( 1.2421000016e-02 -2.6169838789e-19 1.7558541205e-02 ) 2.9288962214e+02 4.0556140075e+01 1.1918291390e-01 ( 5.5986916746e-03 -2.3361335083e-20 -1.6579630872e-02 ) 5.0523470476e+01 ( 1.5540750114e-03 -3.2630183142e-21 -1.0444512967e-02 ) 3.0514812053e-01 1.5122705401e-01 1.0086192837e+05 ( 2.5309221613e-03 -2.2713272053e-21 6.3845233955e-03 ) 1.1689596191e+05 ( 3.5204556380e-03 -1.6116387380e-20 -1.6579630872e-02 ) 1.0132704376e+05 3.6004769026e+01 
5                2.9171280890e+02 ( 5.5986916746e-03 -1.1858461262e-20 -1.7101845641e-03 ) 2.1988457779e+03 ( 1.2421000016e-02 -8.4446672424e-20 2.3631313623e-02 ) 2.9288541429e+02 4.0358440521e+01 1.3490868064e-01 ( 5.5986916746e-03 -2.3361335083e-20 -1.6579630872e-02 ) 5.4829897843e+01 ( 3.5204556380e-03 -1.7803874358e-20 -1.7101845641e-03 ) 3.0656862189e-01 1.6668034236e-01 1.0123124730e+05 ( 1.7738058615e-02 1.8193375659e-19 5.5574341587e-02 ) 1.1447147151e+05 ( 3.5204556380e-03 -1.6116387380e-20 -1.6579630872e-02 ) 1.0132755204e+05 3.4517263942e+01 
6                2.9173665115e+02 ( 5.5986916746e-03 -1.1858461262e-20 -1.7101845641e-03 ) 2.1985317914e+03 ( 1.0001096792e-02 -1.2281647250e-20 2.3631313623e-02 ) 2.9288184679e+02 4.0191792542e+01 1.5250330808e-01 ( 5.5986916746e-03 -2.3361335083e-20 -1.6579630872e-02 ) 6.1719085383e+01 ( 3.5204556380e-03 -1.7803874358e-20 -1.7101845641e-03 ) 3.0797357083e-01 1.7938137826e-01 1.0127583219e+05 ( 2.5309221613e-03 -8.0024213235e-21 3.6843148923e-02 ) 1.1342328977e+05 ( 3.5204556380e-03 -2.0109829836e-20 -1.0444512967e-02 ) 1.0132808211e+05 3.2162186578e+01 
7                2.9176822207e+02 ( 5.5986916746e-03 -1.1858461262e-20 -1.7101845641e-03 ) 2.1982806469e+03 ( 1.0001096792e-02 2.9084829568e-20 1.7558541205e-02 ) 2.9287880114e+02 4.0051957685e+01 1.6983708396e-01 ( 5.5986916746e-03 -2.3361335083e-20 -1.6579630872e-02 ) 6.7398585824e+01 ( 3.5204556380e-03 -1.7803874358e-20 -1.7101845641e-03 ) 3.0943924593e-01 1.9033457061e-01 1.0122653928e+05 ( 6.6603214772e-04 1.2299699648e-22 2.6797256981e-02 ) 1.1223151744e+05 ( 3.5204556380e-03 -2.0109829836e-20 -1.0444512967e-02 ) 1.0132861922e+05 2.9158798315e+01 
8                2.9178630607e+02 ( 5.5986916746e-03 -1.1858461262e-20 -1.7101845641e-03 ) 2.1981618913e+03 ( 1.2421000016e-02 -4.0414439069e-20 1.4646977850e-02 ) 2.9287601465e+02 3.9925500432e+01 5.7423871017e-02 ( 1.0001096792e-02 -6.1801083408e-20 5.1616046234e-02 ) 7.2079722134e+01 ( 3.5204556380e-03 -1.7803874358e-20 -1.7101845641e-03 ) 3.1096635989e-01 1.9920941607e-01 1.0127605359e+05 ( 6.6603214772e-04 -2.1523089732e-21 2.3631313623e-02 ) 1.1072806948e+05 ( 3.5204556380e-03 -2.0109829836e-20 -1.0444512967e-02 ) 1.0132918364e+05 2.5657981028e+01 
9                2.9177338030e+02 ( 5.5986916746e-03 -1.1858461262e-20 -1.7101845641e-03 ) 2.1980720474e+03 ( 1.2421000016e-02 -4.0414439069e-20 1.4646977850e-02 ) 2.9287339624e+02 3.9809059249e+01 2.0594716774e-01 ( 5.5986916746e-03 -2.3361335083e-20 -1.6579630872e-02 ) 7.5699885560e+01 ( 3.5204556380e-03 -1.7803874358e-20 -1.7101845641e-03 ) 3.1259181629e-01 2.0605667066e-01 1.0076471521e+05 ( 4.2508522369e-03 3.9825637279e-21 1.2484264335e-03 ) 1.0906906373e+05 ( 3.5204556380e-03 -2.0109829836e-20 -1.0444512967e-02 ) 1.0132976081e+05 2.1868704512e+01 
10               2.9108612947e+02 ( 6.6603214772e-04 -1.5597108617e-21 -1.6579630872e-02 ) 2.1980200563e+03 ( 1.2421000016e-02 -4.0414439069e-20 1.4646977850e-02 ) 2.9287083625e+02 3.9696035123e+01 2.2919685477e-01 ( 5.5986916746e-03 -2.3361335083e-20 -1.6579630872e-02 ) 7.8197398194e+01 ( 3.5204556380e-03 -1.7803874358e-20 -1.7101845641e-03 ) 3.1430282729e-01 2.1099138990e-01 1.0014016129e+05 ( 4.2508522369e-03 3.9825637279e-21 1.2484264335e-03 ) 1.0738419604e+05 ( 3.5204556380e-03 -2.0109829836e-20 -1.0444512967e-02 ) 1.0133035944e+05 1.8181262814e+01 
11               2.9034981546e+02 ( 6.6603214772e-04 -1.5597108617e-21 -1.6579630872e-02 ) 2.1980195008e+03 ( 1.2421000016e-02 -2.6169838789e-19 1.7558541205e-02 ) 2.9286857574e+02 3.9597782355e+01 2.1742197872e-01 ( 5.5986916746e-03 2.8099340612e-21 5.1616046234e-02 ) 7.9620782912e+01 ( 3.5204556380e-03 -1.7803874358e-20 -1.7101845641e-03 ) 3.1607993901e-01 2.1435728834e-01 9.9542940465e+04 ( 4.2508522369e-03 3.9825637279e-21 1.2484264335e-03 ) 1.0570520452e+05 ( 3.5204556380e-03 -2.0109829836e-20 -1.0444512967e-02 ) 1.0133095751e+05 1.4982367832e+01 
12               2.8962822402e+02 ( 3.5204556380e-03 -1.6116387380e-20 -1.6579630872e-02 ) 2.1979764553e+03 ( 1.2421000016e-02 -2.6169838789e-19 1.7558541205e-02 ) 2.9286645469e+02 3.9505219028e+01 1.7795889455e-01 ( 7.7290215621e-03 -9.1774053419e-20 5.1616046234e-02 ) 7.9993089691e+01 ( 3.5204556380e-03 -1.7803874358e-20 -1.7101845641e-03 ) 3.1790167461e-01 2.1628483872e-01 9.9020121117e+04 ( 4.2508522369e-03 3.9825637279e-21 1.2484264335e-03 ) 1.0450643313e+05 ( 3.5204556380e-03 -1.6116387380e-20 -1.6579630872e-02 ) 1.0133156936e+05 1.2728072712e+01 
13               2.8868229765e+02 ( 3.5204556380e-03 -1.7803874358e-20 -1.7101845641e-03 ) 2.1978917722e+03 ( 1.2421000016e-02 -1.0266619290e-19 2.0552541761e-02 ) 2.9286449461e+02 3.9420891220e+01 1.7990834270e-01 ( 3.5204556380e-03 -1.3553300039e-20 5.1616046234e-02 ) 7.9320721302e+01 ( 3.5204556380e-03 -1.7803874358e-20 -1.7101845641e-03 ) 3.1980065398e-01 2.1710524789e-01 9.8639202458e+04 ( 4.2508522369e-03 3.9825637279e-21 1.2484264335e-03 ) 1.0318790631e+05 ( 3.5204556380e-03 -1.6116387380e-20 -1.6579630872e-02 ) 1.0133217602e+05 1.1922750676e+01 
14               2.8731375680e+02 ( 1.5540750114e-03 8.1004996908e-21 -5.5750666598e-03 ) 2.1977568696e+03 ( 1.2421000016e-02 -1.0266619290e-19 2.0552541761e-02 ) 2.9286258062e+02 3.9337884939e+01 1.2842409375e-01 ( 5.5986916746e-03 2.8099340612e-21 5.1616046234e-02 ) 7.7718788352e+01 ( 3.5204556380e-03 -1.7803874358e-20 -1.7101845641e-03 ) 3.2175625743e-01 2.1669640565e-01 9.8185293840e+04 ( 2.5309221613e-03 7.9717405886e-21 -5.5750666598e-03 ) 1.0174602070e+05 ( 3.5204556380e-03 -1.6116387380e-20 -1.6579630872e-02 ) 1.0133279718e+05 1.2659769506e+01 
15               2.8594881799e+02 ( 1.5540750114e-03 8.1004996908e-21 -5.5750666598e-03 ) 2.1976201942e+03 ( 1.0001096792e-02 1.5424600314e-19 2.6797256981e-02 ) 2.9286075640e+02 3.9259408333e+01 1.7709698456e-01 ( 1.0001096792e-02 2.5110257070e-20 -1.0444512967e-02 ) 7.5267594251e+01 ( 3.5204556380e-03 -1.7803874358e-20 -1.7101845641e-03 ) 3.2379902296e-01 2.1513974101e-01 9.6860407869e+04 ( 2.5309221613e-03 7.9717405886e-21 -5.5750666598e-03 ) 1.0140555552e+05 ( 6.8051561607e-02 -6.3597464015e-20 -1.6579630872e-02 ) 1.0133342169e+05 1.4458936391e+01 
16               2.8480117786e+02 ( 1.5540750114e-03 8.1004996908e-21 -5.5750666598e-03 ) 2.1974849128e+03 ( 1.0001096792e-02 1.5424600314e-19 2.6797256981e-02 ) 2.9285893098e+02 3.9179947939e+01 7.8216418907e-02 ( 1.0001096792e-02 2.5110257070e-20 -1.0444512967e-02 ) 7.2043771185e+01 ( 3.5204556380e-03 -1.7803874358e-20 -1.7101845641e-03 ) 3.2590132797e-01 2.1216453376e-01 9.5836277512e+04 ( 2.5309221613e-03 7.9717405886e-21 -5.5750666598e-03 ) 1.0141871894e+05 ( 1.4996886135e-02 1.4873974691e-19 5.5574341587e-02 ) 1.0133406982e+05 1.6866725345e+01 
17               2.8384246621e+02 ( 1.5540750114e-03 -3.2630183142e-21 -1.0444512967e-02 ) 2.1973400703e+03 ( 1.0001096792e-02 1.4478491675e-20 3.3400600668e-02 ) 2.9285712678e+02 3.9101627173e+01 9.7254166079e-02 ( 1.0001096792e-02 2.5110257070e-20 -1.0444512967e-02 ) 6.8120986160e+01 ( 3.5204556380e-03 -1.7803874358e-20 -1.7101845641e-03 ) 3.2809870512e-01 2.0767230038e-01 9.5107190390e+04 ( 2.5309221613e-03 7.9717405886e-21 -5.5750666598e-03 ) 1.0138600930e+05 ( 9.4998036981e-02 -5.4135211621e-19 -1.6579630872e-02 ) 1.0133473768e+05 1.9578813295e+01 
18               2.8264528876e+02 ( 2.5309221613e-03 -7.0147168444e-21 -1.0444512967e-02 ) 2.1971904180e+03 ( 1.0001096792e-02 1.4478491675e-20 3.3400600668e-02 ) 2.9285521849e+02 3.9017678509e+01 1.6483784754e-01 ( 1.7738058615e-02 -2.4309884801e-22 1.2484264335e-03 ) 6.3545524842e+01 ( 3.5204556380e-03 -1.7803874358e-20 -1.7101845641e-03 ) 3.3037050966e-01 2.0132195626e-01 9.4644756500e+04 ( 2.5309221613e-03 7.9717405886e-21 -5.5750666598e-03 ) 1.0142070772e+05 ( 1.4996886135e-02 1.4873974691e-19 5.5574341587e-02 ) 1.0133544704e+05 2.2413609521e+01 
19               2.8154831771e+02 ( 3.5204556380e-03 -2.0109829836e-20 -1.0444512967e-02 ) 2.1970478965e+03 ( 1.0001096792e-02 1.4478491675e-20 3.3400600668e-02 ) 2.9285329134e+02 3.8933648539e+01 1.2428568364e-01 ( 1.7738058615e-02 -2.4309884801e-22 1.2484264335e-03 ) 5.8322786931e+01 ( 3.5204556380e-03 -1.7803874358e-20 -1.7101845641e-03 ) 3.3272691614e-01 1.9312450978e-01 9.2996737769e+04 ( 2.5309221613e-03 -7.6732004441e-21 -1.6579630872e-02 ) 1.0137953796e+05 ( 1.3954202656e-01 1.4612319672e-18 -1.6579630872e-02 ) 1.0133618094e+05 2.5145383085e+01 
20               2.8061763028e+02 ( 3.5204556380e-03 -2.0109829836e-20 -1.0444512967e-02 ) 2.1969104093e+03 ( 1.0001096792e-02 1.4478491675e-20 3.3400600668e-02 ) 2.9285123982e+02 3.8843472575e+01 1.8509706808e-01 ( 1.7738058615e-02 -2.4309884801e-22 1.2484264335e-03 ) 5.3456183549e+01 ( 3.5204556380e-03 -1.2634374289e-20 1.2484264335e-03 ) 3.3511177780e-01 1.8283281087e-01 9.1562113904e+04 ( 2.5309221613e-03 -7.6732004441e-21 -1.6579630872e-02 ) 1.0138886660e+05 ( 1.4996886135e-02 1.4873974691e-19 5.5574341587e-02 ) 1.0133695313e+05 2.7516580543e+01 
21               2.7998830856e+02 ( 3.5204556380e-03 -2.0109829836e-20 -1.0444512967e-02 ) 2.1967876684e+03 ( 1.0001096792e-02 1.5424600314e-19 2.6797256981e-02 ) 2.9284912175e+02 3.8751873034e+01 1.4817005755e-01 ( 2.0654693777e-02 -7.2483567578e-21 1.2484264335e-03 ) 4.8886099469e+01 ( 3.5204556380e-03 -1.2634374289e-20 1.2484264335e-03 ) 3.3753140302e-01 1.7143758838e-01 9.0626866168e+04 ( 2.5309221613e-03 -7.6732004441e-21 -1.6579630872e-02 ) 1.0137759424e+05 ( 1.7367477391e-01 -2.3557227745e-19 -1.6579630872e-02 ) 1.0133774505e+05 2.9123128906e+01 
22               2.7972105269e+02 ( 3.5204556380e-03 -2.0109829836e-20 -1.0444512967e-02 ) 2.1966758120e+03 ( 1.0001096792e-02 1.5424600314e-19 2.6797256981e-02 ) 2.9284681809e+02 3.8652272119e+01 1.0901898960e-01 ( 2.0654693777e-02 -5.2732257660e-20 -1.7101845641e-03 ) 4.4151642738e+01 ( 3.5204556380e-03 -1.2634374289e-20 1.2484264335e-03 ) 3.3995019564e-01 1.5954981107e-01 9.0308781373e+04 ( 2.5309221613e-03 -7.6732004441e-21 -1.6579630872e-02 ) 1.0137447796e+05 ( 1.7367477391e-01 -2.3557227745e-19 -1.6579630872e-02 ) 1.0133856723e+05 2.9711336063e+01 
23               2.7985042773e+02 ( 3.5204556380e-03 -2.0109829836e-20 -1.0444512967e-02 ) 2.1965696936e+03 ( 1.0001096792e-02 -1.2281647250e-20 2.3631313623e-02 ) 2.9284439296e+02 3.8550114776e+01 4.7593535047e-02 ( 2.0654693777e-02 -5.2732257660e-20 -1.7101845641e-03 ) 4.2629362251e+01 ( 3.5204556380e-03 -1.6457367588e-20 3.7806269019e-03 ) 3.4233857337e-01 1.4808046442e-01 9.0669318205e+04 ( 2.5309221613e-03 -7.6732004441e-21 -1.6579630872e-02 ) 1.0136987251e+05 ( 1.7367477391e-01 3.2116714225e-19 -1.7101845641e-03 ) 1.0133937884e+05 2.9136723807e+01 
24               2.8039956245e+02 ( 3.5204556380e-03 -2.0109829836e-20 -1.0444512967e-02 ) 2.1964638993e+03 ( 1.0001096792e-02 -1.2281647250e-20 2.3631313623e-02 ) 2.9284427945e+02 3.8441373649e+01 3.8683551611e-02 ( 2.0654693777e-02 -5.2732257660e-20 -1.7101845641e-03 ) 4.0946889105e+01 ( 3.5204556380e-03 -1.6457367588e-20 3.7806269019e-03 ) 3.4479205379e-01 1.3769564625e-01 9.1718416794e+04 ( 2.5309221613e-03 -7.6732004441e-21 -1.6579630872e-02 ) 1.0137252217e+05 ( 6.6603214772e-04 -2.8945954046e-21 1.1848123229e-01 ) 1.0134101467e+05 2.7863022256e+01 
25               2.8141108676e+02 ( 3.5204556380e-03 -2.0109829836e-20 -1.0444512967e-02 ) 2.1963594951e+03 ( 1.0001096792e-02 -1.2281647250e-20 2.3631313623e-02 ) 2.9284159098e+02 3.8330400777e+01 2.3260095515e-02 ( 5.5986916746e-03 6.5650009092e-20 4.4023419292e-02 ) 3.9159279250e+01 ( 3.5204556380e-03 -1.6457367588e-20 3.7806269019e-03 ) 3.4713276409e-01 1.2947373315e-01 9.3431569268e+04 ( 2.5309221613e-03 -7.6732004441e-21 -1.6579630872e-02 ) 1.0136961449e+05 ( 6.6603214772e-04 0.0000000000e+00 1.3034990553e-01 ) 1.0134172352e+05 2.4798329994e+01 
26               2.8277098618e+02 ( 3.5204556380e-03 -2.0109829836e-20 -1.0444512967e-02 ) 2.1962584041e+03 ( 1.0001096792e-02 -1.2281647250e-20 2.3631313623e-02 ) 2.9283869099e+02 3.8212812602e+01 2.9868389883e-02 ( 2.7058990397e-02 -7.4069568029e-20 -1.7101845641e-03 ) 3.7499473994e+01 ( 3.5204556380e-03 -1.6457367588e-20 3.7806269019e-03 ) 3.4932026292e-01 1.2418009547e-01 9.5491401986e+04 ( 2.5309221613e-03 -7.6732004441e-21 -1.6579630872e-02 ) 1.0136688831e+05 ( 1.8733264208e-01 3.1458289858e-20 7.7111757299e-02 ) 1.0134234277e+05 2.1146568971e+01 
27               2.8434412753e+02 ( 3.5204556380e-03 -2.0109829836e-20 -1.0444512967e-02 ) 2.1961616165e+03 ( 1.0001096792e-02 -1.2281647250e-20 2.3631313623e-02 ) 2.9283561472e+02 3.8092222209e+01 1.0601637699e-02 ( 2.7058990397e-02 -7.4069568029e-20 -1.7101845641e-03 ) 3.6116001532e+01 ( 3.5204556380e-03 -1.6457367588e-20 3.7806269019e-03 ) 3.5128414048e-01 1.2154670457e-01 9.7688079689e+04 ( 2.5309221613e-03 -7.6732004441e-21 -1.6579630872e-02 ) 1.0136430576e+05 ( 1.8733264208e-01 -3.4461986938e-19 9.6642645714e-02 ) 1.0134282747e+05 1.7579051250e+01 
28               2.8590085700e+02 ( 6.6603214772e-04 1.9931449326e-21 -5.5750666598e-03 ) 2.1960711654e+03 ( 1.0001096792e-02 -1.2281647250e-20 2.3631313623e-02 ) 2.9283624626e+02 3.7966650816e+01 7.6212168032e-03 ( 2.7058990397e-02 -7.4069568029e-20 -1.7101845641e-03 ) 3.5056731742e+01 ( 3.5204556380e-03 -1.6457367588e-20 3.7806269019e-03 ) 3.5298049293e-01 1.2086660246e-01 9.9969124412e+04 ( 2.5309221613e-03 -7.6732004441e-21 -1.6579630872e-02 ) 1.0136913378e+05 ( 6.6603214772e-04 1.8548692733e-21 2.3487249704e-01 ) 1.0134452087e+05 1.6221040279e+01 
29               2.8722625363e+02 ( 6.6603214772e-04 0.0000000000e+00 -1.7101845641e-03 ) 2.1959919665e+03 ( 1.0001096792e-02 -1.2281647250e-20 2.3631313623e-02 ) 2.9283287334e+02 3.7839246186e+01 8.5045441251e-03 ( 2.7058990397e-02 -7.4069568029e-20 -1.7101845641e-03 ) 3.5450209388e+01 ( 1.5540750114e-03 1.1761126719e-21 -1.6579630872e-02 ) 3.5438041678e-01 1.2224808191e-01 1.0105387418e+05 ( 5.5986916746e-03 -1.3699003668e-20 3.7806269019e-03 ) 1.0233843676e+05 ( 3.5204556380e-03 -1.6116387380e-20 -1.6579630872e-02 ) 1.0134470679e+05 1.5222829021e+01 
30               2.8822034948e+02 ( 6.6603214772e-04 0.0000000000e+00 -1.7101845641e-03 ) 2.1959369086e+03 ( 1.0001096792e-02 -8.5413426046e-20 2.0552541761e-02 ) 2.9282946158e+02 3.7710819812e+01 2.3273951181e-02 ( 2.7058990397e-02 -7.4069568029e-20 -1.7101845641e-03 ) 3.6721801780e+01 ( 1.5540750114e-03 1.1761126719e-21 -1.6579630872e-02 ) 3.5549401688e-01 1.2589096703e-01 1.0119912049e+05 ( 5.5986916746e-03 -1.3699003668e-20 3.7806269019e-03 ) 1.0464744723e+05 ( 3.5204556380e-03 -1.6116387380e-20 -1.6579630872e-02 ) 1.0134475142e+05 1.6363345523e+01 
31               2.8885929575e+02 ( 6.6603214772e-04 -1.1858461262e-21 1.2484264335e-03 ) 2.1959138904e+03 ( 1.0001096792e-02 -8.5413426046e-20 2.0552541761e-02 ) 2.9282608815e+02 3.7583435729e+01 8.9699461957e-03 ( 2.7058990397e-02 -5.2935810753e-20 1.2484264335e-03 ) 3.8180689239e+01 ( 1.5540750114e-03 1.1761126719e-21 -1.6579630872e-02 ) 3.5634393785e-01 1.3202596625e-01 1.0126593487e+05 ( 1.7738058615e-02 9.2024002263e-20 3.0052839985e-02 ) 1.0669147403e+05 ( 3.5204556380e-03 -1.6116387380e-20 -1.6579630872e-02 ) 1.0134466520e+05 1.8890539252e+01 
32               2.8925576926e+02 ( 6.6603214772e-04 -1.1858461262e-21 1.2484264335e-03 ) 2.1959261716e+03 ( 1.0001096792e-02 -8.5413426046e-20 2.0552541761e-02 ) 2.9282810381e+02 3.7459077180e+01 2.6946104002e-02 ( 2.7058990397e-02 -5.2935810753e-20 1.2484264335e-03 ) 3.9702665120e+01 ( 1.5540750114e-03 1.1761126719e-21 -1.6579630872e-02 ) 3.5696117579e-01 1.4021809825e-01 1.0127542619e+05 ( 6.6603214772e-04 -1.1858461262e-21 5.1616046234e-02 ) 1.0821254064e+05 ( 3.5204556380e-03 -1.6116387380e-20 -1.6579630872e-02 ) 1.0134629364e+05 2.2404331909e+01 
33               2.8958093957e+02 ( 6.6603214772e-04 -1.1858461262e-21 1.2484264335e-03 ) 2.1959682140e+03 ( 1.0001096792e-02 -8.5413426046e-20 2.0552541761e-02 ) 2.9282499846e+02 3.7339967380e+01 5.6512121600e-02 ( 1.7738058615e-02 1.8193375659e-19 5.5574341587e-02 ) 4.1191436034e+01 ( 1.5540750114e-03 1.1761126719e-21 -1.6579630872e-02 ) 3.5737141942e-01 1.5027874442e-01 1.0128639543e+05 ( 6.6603214772e-04 -1.1858461262e-21 5.1616046234e-02 ) 1.0910759835e+05 ( 3.5204556380e-03 -1.6116387380e-20 -1.6579630872e-02 ) 1.0134598091e+05 2.3993977440e+01 
34               2.8981021905e+02 ( 6.6603214772e-04 -1.1858461262e-21 1.2484264335e-03 ) 2.1960272616e+03 ( 1.0001096792e-02 -8.5413426046e-20 2.0552541761e-02 ) 2.9282125212e+02 3.7227255845e+01 4.0428316638e-02 ( 1.7738058615e-02 1.8193375659e-19 5.5574341587e-02 ) 4.2460668575e+01 ( 1.5540750114e-03 1.1761126719e-21 -1.6579630872e-02 ) 3.5754437003e-01 1.6135454991e-01 1.0130088844e+05 ( 1.7738058615e-02 -3.8103191632e-19 5.1616046234e-02 ) 1.0934359914e+05 ( 3.5204556380e-03 -1.6116387380e-20 -1.6579630872e-02 ) 1.0134529002e+05 2.4485890979e+01 
35               2.8989693131e+02 ( 6.6603214772e-04 -1.1750722961e-21 3.7806269019e-03 ) 2.1960941488e+03 ( 1.0001096792e-02 -8.5413426046e-20 2.0552541761e-02 ) 2.9281850376e+02 3.7121670753e+01 4.2487580731e-02 ( 1.7738058615e-02 1.8193375659e-19 5.5574341587e-02 ) 4.7455668336e+01 ( 2.5309221613e-03 4.8764000489e-21 -1.7101845641e-03 ) 3.5755830700e-01 1.7258951007e-01 1.0131346458e+05 ( 6.6603214772e-04 -5.9292306308e-22 6.8134454921e-02 ) 1.0895689894e+05 ( 3.5204556380e-03 -1.6116387380e-20 -1.6579630872e-02 ) 1.0134478972e+05 2.3726171561e+01 
36               2.8986189074e+02 ( 6.6603214772e-04 -1.1750722961e-21 3.7806269019e-03 ) 2.1961483614e+03 ( 1.0001096792e-02 -8.5413426046e-20 2.0552541761e-02 ) 2.9281599952e+02 3.7024375764e+01 5.3005288010e-02 ( 5.5986916746e-03 -2.3361335083e-20 -1.6579630872e-02 ) 5.2688453686e+01 ( 2.5309221613e-03 4.8764000489e-21 -1.7101845641e-03 ) 3.5746188623e-01 1.8311257764e-01 1.0131224639e+05 ( 1.3954202656e-01 1.4612319672e-18 -1.6579630872e-02 ) 1.0803724019e+05 ( 3.5204556380e-03 -1.6116387380e-20 -1.6579630872e-02 ) 1.0134421478e+05 2.2022508494e+01 
37               2.8980621864e+02 ( 1.5540750114e-03 2.0426391238e-21 1.2484264335e-03 ) 2.1961713443e+03 ( 1.0001096792e-02 -8.5413426046e-20 2.0552541761e-02 ) 2.9281373867e+02 3.6934615498e+01 3.7685844537e-02 ( 5.5986916746e-03 -2.3361335083e-20 -1.6579630872e-02 ) 5.6664765000e+01 ( 2.5309221613e-03 4.8764000489e-21 -1.7101845641e-03 ) 3.5731030654e-01 1.9208785619e-01 1.0130973256e+05 ( 1.7367477391e-01 -2.3557227745e-19 -1.6579630872e-02 ) 1.0670473916e+05 ( 3.5204556380e-03 -1.6116387380e-20 -1.6579630872e-02 ) 1.0134357959e+05 1.9800235179e+01 
38               2.8961443323e+02 ( 1.5540750114e-03 2.0426391238e-21 1.2484264335e-03 ) 2.1961671883e+03 ( 1.0001096792e-02 -8.5413426046e-20 2.0552541761e-02 ) 2.9281171893e+02 3.6852249037e+01 2.4629807569e-02 ( 2.0654693777e-02 -3.2896830373e-21 -5.5750666598e-03 ) 5.9177409520e+01 ( 2.5309221613e-03 4.8764000489e-21 -1.7101845641e-03 ) 3.5716677702e-01 1.9889390824e-01 1.0130788922e+05 ( 1.7367477391e-01 -2.3557227745e-19 -1.6579630872e-02 ) 1.0515816808e+05 ( 3.5204556380e-03 -1.6116387380e-20 -1.6579630872e-02 ) 1.0134289323e+05 1.7654579383e+01 
39               2.8937475017e+02 ( 1.5540750114e-03 2.0426391238e-21 1.2484264335e-03 ) 2.1961346838e+03 ( 1.0001096792e-02 -1.2281647250e-20 2.3631313623e-02 ) 2.9280991659e+02 3.6775832378e+01 1.3287314896e-02 ( 2.0654693777e-02 -3.2896830373e-21 -5.5750666598e-03 ) 6.0219122751e+01 ( 2.5309221613e-03 4.8764000489e-21 -1.7101845641e-03 ) 3.5710083311e-01 2.0339927342e-01 1.0104573377e+05 ( 4.2508522369e-03 3.9825637279e-21 1.2484264335e-03 ) 1.0351396431e+05 ( 3.5204556380e-03 -1.6116387380e-20 -1.6579630872e-02 ) 1.0134216917e+05 1.6045154056e+01 
40               2.8911275259e+02 ( 1.5540750114e-03 2.0426391238e-21 1.2484264335e-03 ) 2.1960792201e+03 ( 1.0001096792e-02 -1.2281647250e-20 2.3631313623e-02 ) 2.9280830599e+02 3.6704137435e+01 8.2322918611e-03 ( 2.0654693777e-02 -3.2896830373e-21 -5.5750666598e-03 ) 5.9894997155e+01 ( 2.5309221613e-03 4.8764000489e-21 -1.7101845641e-03 ) 3.5718641007e-01 2.0560968871e-01 1.0081598347e+05 ( 4.2508522369e-03 3.9825637279e-21 1.2484264335e-03 ) 1.0183014418e+05 ( 3.5204556380e-03 -1.6116387380e-20 -1.6579630872e-02 ) 1.0134141778e+05 1.5236021465e+01 
41               2.8860873108e+02 ( 3.5204556380e-03 -1.7803874358e-20 -1.7101845641e-03 ) 2.1959898682e+03 ( 1.0001096792e-02 -1.2281647250e-20 2.3631313623e-02 ) 2.9280688229e+02 3.6636890118e+01 5.6805618154e-03 ( 2.0654693777e-02 -3.2896830373e-21 -5.5750666598e-03 ) 5.8243781862e+01 ( 2.5309221613e-03 4.8764000489e-21 -1.7101845641e-03 ) 3.5748403990e-01 2.0546071978e-01 9.9951847484e+04 ( 2.5309221613e-03 7.9717405886e-21 -5.5750666598e-03 ) 1.0152230594e+05 ( 1.5540750114e-03 4.7418638858e-21 1.1815581860e-02 ) 1.0134064629e+05 1.5292063663e+01 
42               2.8810602450e+02 ( 3.5204556380e-03 -1.7803874358e-20 -1.7101845641e-03 ) 2.1958715305e+03 ( 1.0001096792e-02 -1.2281647250e-20 2.3631313623e-02 ) 2.9280561549e+02 3.6573186592e+01 2.3820901096e-02 ( 2.0654693777e-02 -3.2896830373e-21 -5.5750666598e-03 ) 5.5279660137e+01 ( 2.5309221613e-03 4.8764000489e-21 -1.7101845641e-03 ) 3.5803257496e-01 2.0299550772e-01 9.8564731413e+04 ( 2.5309221613e-03 -7.6732004441e-21 -1.6579630872e-02 ) 1.0149703190e+05 ( 1.5540750114e-03 4.7418638858e-21 1.1815581860e-02 ) 1.0133985843e+05 1.5972165241e+01 
43               2.8771971436e+02 ( 3.5204556380e-03 -1.7803874358e-20 -1.7101845641e-03 ) 2.1957176944e+03 ( 1.0001096792e-02 -1.2281647250e-20 2.3631313623e-02 ) 2.9280106998e+02 3.6511508307e+01 3.2167830532e-02 ( 1.4996886135e-02 1.0682654686e-19 -1.7101845641e-03 ) 5.1566007973e+01 ( 2.5309221613e-03 -5.4243793563e-21 1.2484264335e-03 ) 3.5884305842e-01 1.9858305150e-01 9.7327438634e+04 ( 2.5309221613e-03 -7.6732004441e-21 -1.6579630872e-02 ) 1.0147159769e+05 ( 1.5540750114e-03 4.7418638858e-21 1.1815581860e-02 ) 1.0133788580e+05 1.7772246350e+01 
44               2.8726644446e+02 ( 3.5204556380e-03 -2.0109829836e-20 -1.0444512967e-02 ) 2.1955466801e+03 ( 1.0001096792e-02 -1.2281647250e-20 2.3631313623e-02 ) 2.9279999101e+02 3.6451168292e+01 5.5294904063e-02 ( 1.4996886135e-02 1.0682654686e-19 -1.7101845641e-03 ) 4.8011001304e+01 ( 2.5309221613e-03 -5.4243793563e-21 1.2484264335e-03 ) 3.5991785934e-01 1.9297468702e-01 9.6488795178e+04 ( 2.5309221613e-03 -7.6732004441e-21 -1.6579630872e-02 ) 1.0144491594e+05 ( 1.5540750114e-03 4.7418638858e-21 1.1815581860e-02 ) 1.0133707837e+05 1.8076560373e+01 
45               2.8681343898e+02 ( 3.5204556380e-03 -2.0109829836e-20 -1.0444512967e-02 ) 2.1953639939e+03 ( 1.0001096792e-02 -1.2281647250e-20 2.3631313623e-02 ) 2.9279676036e+02 3.6391434571e+01 1.1741380084e-01 ( 2.0654693777e-02 -3.2896830373e-21 -5.5750666598e-03 ) 4.5978038180e+01 ( 2.5309221613e-03 0.0000000000e+00 3.7806269019e-03 ) 3.6123534330e-01 1.8676347001e-01 9.6127811990e+04 ( 2.5309221613e-03 -7.6732004441e-21 -1.6579630872e-02 ) 1.0141926430e+05 ( 1.5540750114e-03 4.7418638858e-21 1.1815581860e-02 ) 1.0133549635e+05 1.8154512714e+01 
46               2.8673075069e+02 ( 3.5204556380e-03 -2.0109829836e-20 -1.0444512967e-02 ) 2.1951697335e+03 ( 1.0001096792e-02 -1.2281647250e-20 2.3631313623e-02 ) 2.9279571941e+02 3.6331707685e+01 1.3986196870e-01 ( 1.7738058615e-02 -6.0500460183e-20 -1.6579630872e-02 ) 4.4429576713e+01 ( 2.5309221613e-03 0.0000000000e+00 3.7806269019e-03 ) 3.6276044301e-01 1.8084221537e-01 9.6285203484e+04 ( 2.5309221613e-03 -7.6732004441e-21 -1.6579630872e-02 ) 1.0139947013e+05 ( 1.5540750114e-03 4.7418638858e-21 1.1815581860e-02 ) 1.0133464933e+05 1.7013397833e+01 
47               2.8702495578e+02 ( 3.5204556380e-03 -2.0109829836e-20 -1.0444512967e-02 ) 2.1949650814e+03 ( 1.0001096792e-02 -1.2281647250e-20 2.3631313623e-02 ) 2.9279465606e+02 3.6271848253e+01 1.4936848343e-01 ( 1.7738058615e-02 -6.0500460183e-20 -1.6579630872e-02 ) 4.3193590187e+01 ( 2.5309221613e-03 -2.2713272053e-21 6.3845233955e-03 ) 3.6445417019e-01 1.7596942257e-01 9.6936146574e+04 ( 2.5309221613e-03 -7.6732004441e-21 -1.6579630872e-02 ) 1.0138582661e+05 ( 1.5540750114e-03 4.7418638858e-21 1.1815581860e-02 ) 1.0133376691e+05 1.5202480005e+01 
48               2.8765909655e+02 ( 3.5204556380e-03 -2.0109829836e-20 -1.0444512967e-02 ) 2.1947649043e+03 ( 1.0001096792e-02 1.5424600314e-19 2.6797256981e-02 ) 2.9279354897e+02 3.6211569714e+01 1.3162292137e-01 ( 2.7058990397e-02 -5.2935810753e-20 1.2484264335e-03 ) 4.2676539821e+01 ( 2.5309221613e-03 -2.2713272053e-21 6.3845233955e-03 ) 3.6628053765e-01 1.7255140392e-01 9.7996840888e+04 ( 2.5309221613e-03 -7.6732004441e-21 -1.6579630872e-02 ) 1.0137929820e+05 ( 1.5540750114e-03 4.7418638858e-21 1.1815581860e-02 ) 1.0133283957e+05 1.3157114492e+01 
49               2.8842845449e+02 ( 3.5204556380e-03 -1.7803874358e-20 -1.7101845641e-03 ) 2.1945750086e+03 ( 1.0001096792e-02 1.5424600314e-19 2.6797256981e-02 ) 2.9279238295e+02 3.6150675794e+01 1.0910484757e-01 ( 2.7058990397e-02 -5.2935810753e-20 1.2484264335e-03 ) 4.2325235175e+01 ( 2.5309221613e-03 -2.2713272053e-21 6.3845233955e-03 ) 3.6820790190e-01 1.7069397012e-01 9.9345067965e+04 ( 2.5309221613e-03 -7.6732004441e-21 -1.6579630872e-02 ) 1.0137759908e+05 ( 6.6603214772e-04 5.2594786520e-23 1.1815581860e-02 ) 1.0133185954e+05 1.1599330922e+01 
50               2.8891391661e+02 ( 6.6603214772e-04 -1.1750722961e-21 3.7806269019e-03 ) 2.1943975143e+03 ( 1.0001096792e-02 1.5424600314e-19 2.6797256981e-02 ) 2.9279114759e+02 3.6089075763e+01 9.2550999317e-02 ( 2.7058990397e-02 -5.2935810753e-20 1.2484264335e-03 ) 4.2195588380e+01 ( 2.5309221613e-03 -2.2713272053e-21 6.3845233955e-03 ) 3.7020740993e-01 1.7035962259e-01 1.0082741059e+05 ( 2.5309221613e-03 -7.6732004441e-21 -1.6579630872e-02 ) 1.0152567893e+05 ( 3.5204556380e-03 -1.2634374289e-20 1.2484264335e-03 ) 1.0133082205e+05 1.1318306512e+01 
