# Force          
# CofR           : ( 0.0000000000e+00 0.0000000000e+00 0.0000000000e+00 )
#                
# Time           	(total_x total_y total_z)	(pressure_x pressure_y pressure_z)	(viscous_x viscous_y viscous_z)
10               	( -7.2174754189e+03 1.4134196610e+03 5.9287804759e+03 )	( -7.2111025371e+03 1.4135758288e+03 5.9241094641e+03 )	( -6.3728817646e+00 -1.5616779144e-01 4.6710117701e+00 )
