# Force          
# CofR           : ( 0.0000000000e+00 0.0000000000e+00 0.0000000000e+00 )
#                
# Time           	(total_x total_y total_z)	(pressure_x pressure_y pressure_z)	(viscous_x viscous_y viscous_z)
10               	( -6.4408444158e+03 -1.6655563436e+03 4.3493884512e+03 )	( -6.4337394638e+03 -1.6623671583e+03 4.3451828392e+03 )	( -7.1049520108e+00 -3.1891852710e+00 4.2056119635e+00 )
