# Time           	Umin             	at location      	Umax             	at location      	Umean            	UstDev           	pmin             	at location      	pmax             	at location      	pmean            	pstDev           
5e-06            1.4410664184e-41 ( 1.6666666665e-03 2.7852631580e-01 0.0000000000e+00 ) 7.0811083500e+00 ( 1.4900000000e-01 5.7000000000e-02 0.0000000000e+00 ) 1.4201600214e-02 2.6968647798e-01 -3.3026998335e+05 ( 1.4900000000e-01 5.5000000000e-02 0.0000000000e+00 ) 1.0000000000e+07 ( 7.1666666665e-02 6.8842105265e-02 -6.5052130349e-19 ) 9.9784050047e+06 4.1153979917e+05 
