# Time           	Tmin             	at location      	Tmax             	at location      	Tmean            	TstDev           	Umin             	at location      	Umax             	at location      	Umean            	UstDev           	pmin             	at location      	pmax             	at location      	pmean            	pstDev           	wmin             	at location      	wmax             	at location      	wmean            	wstDev           
10               3.0278253636e+02 ( 4.7500000000e-01 2.1400000000e-01 5.7500000000e-01 ) 3.0314051350e+02 ( -4.7500000000e-01 2.1400000000e-01 1.4750000000e+00 ) 3.0297896956e+02 1.0138554913e-01 5.8041204188e-01 ( 4.7500000000e-01 2.1400000000e-01 5.7500000000e-01 ) 1.1395083946e+00 ( -4.7500000000e-01 2.1400000000e-01 1.4750000000e+00 ) 7.8671063666e-01 1.2671389951e-01 -1.8169291020e+01 ( 4.7500000000e-01 2.1400000000e-01 1.4750000000e+00 ) -5.8881149455e+00 ( -4.7500000000e-01 2.1400000000e-01 5.2500000000e-01 ) -1.2025548783e+01 3.4868028910e+00 1.5940053150e-02 ( -4.7500000000e-01 2.1400000000e-01 1.4750000000e+00 ) 1.6384785893e-02 ( 4.7500000000e-01 2.1400000000e-01 9.7500000000e-01 ) 1.6171307881e-02 1.3665149720e-04 
