# Time       	Tmin         	at location  	Tmax         	at location  	Tmean        	TstDev       	Umin         	at location  	Umax         	at location  	Umean        	UstDev       	pmin         	at location  	pmax         	at location  	pmean        	pstDev       
0.00908893   2.947500e+02 ( 9.880998e-02 7.500000e-03 2.986017e-03 ) 2.960789e+02 ( -2.746151e-02 2.500000e-03 -3.079238e-02 ) 2.947503e+02 1.958227e-02 3.208508e-08 ( -5.880251e-01 2.450000e-01 1.755276e-01 ) 1.311390e-02 ( -1.030670e-01 2.925000e-01 -2.582627e-02 ) 1.071563e-04 5.267870e-04 -6.919937e+00 ( -5.880251e-01 5.913780e-01 -1.951055e-01 ) -3.247496e-02 ( -4.295047e-02 2.500000e-03 1.469906e-02 ) -3.043666e+00 1.876338e+00 
