# Probe 0 ( 0 0 0 )
# Probe 1 ( 0.02 0 0.02 )
# Probe 2 ( 0.02 0 -0.02 )
# Probe 3 ( -0.02 0 0.02 )
# Probe 4 ( -0.02 0 -0.02 )
#       Probe             0             1             2             3             4
#        Time
   0.00112001      -388.462      -388.252      -388.227      -388.136      -388.191
   0.00237441      -388.462      -388.252      -388.227      -388.136      -388.191
   0.00377933      -388.462      -388.252      -388.227      -388.136      -388.191
   0.00535284      -388.462      -388.252      -388.227      -388.136      -388.191
   0.00711511      -388.462      -388.252      -388.227      -388.136      -388.191
   0.00908893      -388.462      -388.252      -388.227      -388.136      -388.191
