# DavidsonCurle Acoustic Analogy
# Time       	microphone-A 	microphone-B 	microphone-C 
0.01	   6.045296e-01   -6.369003e-01   -6.537931e-01   
