# Time           	origin           	e1               	e2               	e3               	transformation   	velocity         	omega            	acceleration     	angularAcceleration
0.025	( -7.5256358542e-01 4.9968264088e+01 1.2650000000e-01 )	( 6.7576495337e-01 1.7255112149e-01 7.1663647568e-01 )	( -6.9435798314e-01 -1.7729870143e-01 6.9744688810e-01 )	( 2.4740395925e-01 -9.6891242171e-01 -2.7755575616e-17 )	(( -7.7041784251e+00 1.3989410230e+00 8.3750327708e+00 ) (-9.1407388421e-01 ( -4.8491348591e-02 3.8590820808e-01 -1.1485807876e-01 )))	( 0.0000000000e+00 0.0000000000e+00 0.0000000000e+00 )	( 7.0086107438e+01 -2.7447943958e+02 -7.8627692962e-15 )	( 0.0000000000e+00 0.0000000000e+00 0.0000000000e+00 )	( 4.2051664463e+03 5.2840076413e+02 -4.7176615777e-13 )	
0.05	( -1.9583364121e+00 4.9627625579e+01 1.2650000000e-01 )	( -2.3813796543e-02 -1.3009536344e-02 9.9963175973e-01 )	( -8.7725940065e-01 -4.7924899481e-01 -2.7135676547e-02 )	( 4.7942553860e-01 -8.7758256189e-01 -5.2041704279e-18 )	(( -4.7500334866e+00 3.0288254490e+00 1.5857413482e+01 ) (-9.1407388421e-01 ( -1.4245908858e-01 3.6191430481e-01 -1.1485807876e-01 )))	( 0.0000000000e+00 0.0000000000e+00 0.0000000000e+00 )	( 1.3581460017e+02 -2.4860695804e+02 -1.4742692430e-15 )	( 0.0000000000e+00 0.0000000000e+00 0.0000000000e+00 )	( 2.5419874153e+03 1.3762153041e+03 5.4056538911e-13 )	
0.075	( -3.0423493657e+00 4.8999263724e+01 1.2650000000e-01 )	( -5.3800956271e-01 -5.0120780403e-01 6.7774364447e-01 )	( -4.9589748061e-01 -4.6197633743e-01 -7.3529827443e-01 )	( 6.8163876002e-01 -7.3168886887e-01 -2.7755575616e-17 )	(( -2.9356278511e+00 5.8772831709e+00 2.2378515147e+01 ) (-9.1407388421e-01 ( -2.2756941243e-01 3.1541832298e-01 -1.1485807876e-01 )))	( 0.0000000000e+00 0.0000000000e+00 0.0000000000e+00 )	( 1.9309879887e+02 -2.0727729996e+02 -7.8627692962e-15 )	( 0.0000000000e+00 0.0000000000e+00 0.0000000000e+00 )	( 2.1224820675e+03 1.9623298540e+03 -5.1108000425e-13 )	
0.1	( -3.9372037711e+00 4.8122247022e+01 1.2650000000e-01 )	( -5.3950660813e-01 -8.4023175900e-01 -5.4251368197e-02 )	( 2.9312139333e-02 4.5650952224e-02 -9.9852731012e-01 )	( 8.4147098481e-01 -5.4030230587e-01 -5.8980598183e-17 )	(( -2.7062026120e+00 9.2494816176e+00 2.7532887249e+01 ) (-9.1407388421e-01 ( -2.9853057244e-01 2.4931115753e-01 -1.1485807876e-01 )))	( 0.0000000000e+00 0.0000000000e+00 0.0000000000e+00 )	( 2.3837704952e+02 -1.5306014331e+02 -1.6708384754e-14 )	( 0.0000000000e+00 0.0000000000e+00 0.0000000000e+00 )	( 1.5710110648e+03 2.4264362380e+03 -4.0296692643e-13 )	
0.125	( -4.5872619156e+00 4.7051104122e+01 1.2650000000e-01 )	( -2.0733746216e-01 -6.2399653837e-01 -7.5341854032e-01 )	( 2.3756971400e-01 7.1498260670e-01 -6.5754125582e-01 )	( 9.4898461936e-01 -3.1532236240e-01 -8.3266726847e-17 )	(( -4.1195445802e+00 1.2322028148e+01 3.1000055895e+01 ) (-9.1407388421e-01 ( -3.5093054735e-01 1.6770303182e-01 -1.1485807876e-01 )))	( 0.0000000000e+00 0.0000000000e+00 0.0000000000e+00 )	( 2.6883416979e+02 -8.9326448271e+01 -2.3588307889e-14 )	( 0.0000000000e+00 0.0000000000e+00 0.0000000000e+00 )	( 9.2186220316e+02 2.7396785689e+03 -2.3588307889e-13 )	
0.15	( -4.9521063322e+00 4.5852433502e+01 1.2650000000e-01 )	( 5.7528518111e-03 8.1123379282e-02 -9.9668746457e-01 )	( 7.0502882181e-02 9.9419074912e-01 8.1327104769e-02 )	( 9.9749498660e-01 -7.0737201668e-02 -9.3675067703e-17 )	(( -6.8317376125e+00 1.4344426068e+01 3.2564449333e+01 ) (-9.1407388421e-01 ( -3.8151136054e-01 7.5667943853e-02 -1.1485807876e-01 )))	( 0.0000000000e+00 0.0000000000e+00 0.0000000000e+00 )	( 2.8257648346e+02 -2.0038867328e+01 -2.6536846375e-14 )	( 0.0000000000e+00 0.0000000000e+00 0.0000000000e+00 )	( 2.1539641472e+02 2.8825809559e+03 -3.9313846481e-14 )	
0.175	( -5.0090527622e+00 4.4600762695e+01 1.2650000000e-01 )	( -1.3742484415e-01 7.5863735052e-01 -6.3685460084e-01 )	( -1.1351682062e-01 6.2665597743e-01 7.7098392810e-01 )	( 9.8398594687e-01 1.7824605565e-01 -1.3877787808e-16 )	(( -1.0181233513e+01 1.4822712354e+01 3.2128801155e+01 ) (-9.1407388421e-01 ( -3.8837164515e-01 -2.1071810374e-02 -1.1485807876e-01 )))	( 0.0000000000e+00 0.0000000000e+00 0.0000000000e+00 )	( 2.7874956002e+02 5.0494633328e+01 -3.9313846481e-14 )	( 0.0000000000e+00 0.0000000000e+00 0.0000000000e+00 )	( -5.0446167954e+02 2.8462584205e+03 -7.0764923666e-13 )	
0.2	( -4.7545605524e+00 4.3373914531e+01 1.2650000000e-01 )	( -4.1369722069e-01 9.0394491854e-01 1.0834294551e-01 )	( 4.5086574037e-02 -9.8515961569e-02 9.9411357810e-01 )	( 9.0929742683e-01 4.1614683655e-01 -1.0408340856e-16 )	(( -1.3350667208e+01 1.3640323007e+01 2.9720197855e+01 ) (-9.1407388421e-01 ( -3.7108486191e-01 -1.1650142149e-01 -1.1485807876e-01 )))	( 0.0000000000e+00 0.0000000000e+00 0.0000000000e+00 )	( 2.5759133904e+02 1.1788862225e+02 -2.9485384861e-14 )	( 0.0000000000e+00 0.0000000000e+00 0.0000000000e+00 )	( -1.1929547899e+03 2.6329693222e+03 8.4524769934e-13 )	
0.225	( -4.2044527958e+00 4.2248168485e+01 1.2650000000e-01 )	( -3.8676581784e-01 4.7905882298e-01 7.8798150123e-01 )	( 4.9498919426e-01 -6.1310728575e-01 6.1569891483e-01 )	( 7.7807319689e-01 6.2817362272e-01 -1.9428902931e-16 )	(( -1.5566807835e+01 1.1086598588e+01 2.5488394720e+01 ) (-9.1407388421e-01 ( -3.3072581928e-01 -2.0468753849e-01 -1.1485807876e-01 )))	( 0.0000000000e+00 0.0000000000e+00 0.0000000000e+00 )	( 2.2041733623e+02 1.7795286763e+02 -5.5039385073e-14 )	( 0.0000000000e+00 0.0000000000e+00 0.0000000000e+00 )	( -1.8072757494e+03 2.2559749441e+03 -1.7298092452e-12 )	
0.25	( -3.3929325283e+00 4.1293517994e+01 1.2650000000e-01 )	( 1.0837790219e-01 -8.0960709461e-02 9.9080754632e-01 )	( 7.9377913997e-01 -5.9297071664e-01 -1.3527899378e-01 )	( 5.9847214410e-01 8.0114361555e-01 -9.7144514655e-17 )	(( -1.6289701202e+01 7.7859528583e+00 1.9696504773e+01 ) (-9.1407388421e-01 ( -2.6980384705e-01 -2.8014717572e-01 -1.1485807876e-01 )))	( 0.0000000000e+00 0.0000000000e+00 0.0000000000e+00 )	( 1.6953885102e+02 2.2695286559e+02 -2.7519692537e-14 )	( 0.0000000000e+00 0.0000000000e+00 0.0000000000e+00 )	( -2.3092290562e+03 1.7387149705e+03 2.1622615565e-12 )	
0.275	( -2.3704561496e+00 4.0569318603e+01 1.2650000000e-01 )	( 7.4350766996e-01 -3.0700762161e-01 5.9408977855e-01 )	( 5.4911859544e-01 -2.2674089425e-01 -8.0439874131e-01 )	( 3.8166099205e-01 9.2430237863e-01 -1.6653345369e-16 )	(( -1.5344705616e+01 4.5450459334e+00 1.2704639678e+01 ) (-9.1407388421e-01 ( -1.9210677838e-01 -3.3818861845e-01 -1.1485807876e-01 )))	( 0.0000000000e+00 0.0000000000e+00 0.0000000000e+00 )	( 1.0811926120e+02 2.6184203361e+02 -4.7176615777e-14 )	( 0.0000000000e+00 0.0000000000e+00 0.0000000000e+00 )	( -2.6676056848e+03 1.1133501214e+03 -1.7298092452e-12 )	
0.3	( -1.2005962886e+00 4.0120597521e+01 1.2650000000e-01 )	( 9.7689668188e-01 -1.3925324494e-01 -1.6211541171e-01 )	( -1.6049304117e-01 2.2877728207e-02 -9.8677180406e-01 )	( 1.4112000806e-01 9.8999249660e-01 -1.9775847626e-16 )	(( -1.2965104288e+01 2.1553760999e+00 4.9475197416e+00 ) (-9.1407388421e-01 ( -1.0246544069e-01 -3.7520313087e-01 -1.1485807876e-01 )))	( 0.0000000000e+00 0.0000000000e+00 0.0000000000e+00 )	( 3.9977339394e+01 2.8045113218e+02 -5.6022231236e-14 )	( 0.0000000000e+00 0.0000000000e+00 0.0000000000e+00 )	( -2.8601235123e+03 4.1876255421e+02 -1.3759846268e-13 )	
0.325	( 4.3910834610e-02 3.9975254052e+01 1.2650000000e-01 )	( 5.6868502838e-01 6.1892280888e-02 -8.2022355737e-01 )	( -8.1540857940e-01 -8.8744198134e-02 -5.7204310671e-01 )	( -1.0819513453e-01 9.9412967608e-01 -2.0122792321e-16 )	(( -9.7348703755e+00 1.1996170813e+00 -3.0925548888e+00 ) (-9.1407388421e-01 ( -6.4532981787e-03 -3.8888932987e-01 -1.1485807876e-01 )))	( 0.0000000000e+00 0.0000000000e+00 0.0000000000e+00 )	( -3.0650179754e+01 2.8162313770e+02 -5.7005077398e-14 )	( 0.0000000000e+00 0.0000000000e+00 0.0000000000e+00 )	( -2.8748127126e+03 -3.0186164038e+02 1.1794153944e-13 )	
0.35	( 1.2856877948e+00 4.0142324950e+01 1.2650000000e-01 )	( -1.7683339633e-01 -6.6239250966e-02 -9.8200932357e-01 )	( -9.1960919804e-01 -3.4447240014e-01 1.8883243478e-01 )	( -3.5078322769e-01 9.3645668729e-01 -1.5265566589e-16 )	(( -6.4456051997e+00 1.9091084589e+00 -1.0915691314e+01 ) (-9.1407388421e-01 ( 8.9960079157e-02 -3.7839627391e-01 -1.1485807876e-01 )))	( 0.0000000000e+00 0.0000000000e+00 0.0000000000e+00 )	( -9.9372019176e+01 2.6528518054e+02 -4.3245231129e-14 )	( 0.0000000000e+00 0.0000000000e+00 0.0000000000e+00 )	( -2.7107599824e+03 -1.0037175402e+03 8.4524769934e-13 )	
0.375	( 2.4475269150e+00 4.0611422554e+01 1.2650000000e-01 )	( -6.8553163358e-01 -4.7750764284e-01 -5.4957513625e-01 )	( -4.5095902061e-01 -3.1411588963e-01 8.3544429474e-01 )	( -5.7156131874e-01 8.2055935734e-01 -1.6653345369e-16 )	(( -3.9026814041e+00 4.1073812814e+00 -1.8035484803e+01 ) (-9.1407388421e-01 ( 1.8078017448e-01 -3.4437637036e-01 -1.1485807876e-01 )))	( 0.0000000000e+00 0.0000000000e+00 0.0000000000e+00 )	( -1.6191538775e+02 2.3245307573e+02 -4.7176615777e-14 )	( 0.0000000000e+00 0.0000000000e+00 0.0000000000e+00 )	( -2.3781653258e+03 -1.6431671448e+03 -5.1108000425e-13 )	
0.4	( 3.4571906661e+00 4.1353380648e+01 1.2650000000e-01 )	( -6.3829842981e-01 -7.3903550653e-01 2.1541038645e-01 )	( 1.4080162497e-01 1.6302311798e-01 9.7652361232e-01 )	( -7.5680249531e-01 6.5364362086e-01 -8.3266726847e-17 )	(( -2.7280567969e+00 7.2535354667e+00 -2.4009261080e+01 ) (-9.1407388421e-01 ( 2.6036023416e-01 -2.8894481206e-01 -1.1485807876e-01 )))	( 0.0000000000e+00 0.0000000000e+00 0.0000000000e+00 )	( -2.1439164173e+02 1.8516816455e+02 -2.3588307889e-14 )	( 0.0000000000e+00 0.0000000000e+00 0.0000000000e+00 )	( -1.8977078677e+03 -2.1804525749e+03 1.4939261663e-12 )	
0.425	( 4.2519030462e+00 4.2322067871e+01 1.2650000000e-01 )	( -2.3495535797e-01 -4.7139305584e-01 8.5004974364e-01 )	( 3.7919655644e-01 7.6078547452e-01 5.2670241440e-01 )	( -8.9498935823e-01 4.4608748991e-01 -8.3266726847e-17 )	(( -3.2080370933e+00 1.0574838023e+01 -2.8465599669e+01 ) (-9.1407388421e-01 ( 3.2375235550e-01 -2.1554806483e-01 -1.1485807876e-01 )))	( 0.0000000000e+00 0.0000000000e+00 0.0000000000e+00 )	( -2.5353806182e+02 1.2637039374e+02 -2.3588307889e-14 )	( 0.0000000000e+00 0.0000000000e+00 0.0000000000e+00 )	( -1.2992601258e+03 -2.5821680248e+03 -4.7176615777e-13 )	
0.45	( 4.7822526886e+00 4.3457255944e+01 1.2650000000e-01 )	( 5.0976683368e-02 2.3639580782e-01 9.7031871042e-01 )	( 2.0453910827e-01 9.4851576317e-01 -2.4182969255e-01 )	( -9.7753011767e-01 2.1079579943e-01 -4.8572257327e-17 )	(( -5.2232580847e+00 1.3256067037e+01 -3.1127427021e+01 ) (-9.1407388421e-01 ( 3.6701512346e-01 -1.2874958292e-01 -1.1485807876e-01 )))	( 0.0000000000e+00 0.0000000000e+00 0.0000000000e+00 )	( -2.7692071322e+02 5.9715523918e+01 -1.3759846268e-14 )	( 0.0000000000e+00 0.0000000000e+00 0.0000000000e+00 )	( -6.2003068209e+02 -2.8233367734e+03 5.8970769722e-13 )	
0.475	( 5.0152650213e+00 4.4688364370e+01 1.2650000000e-01 )	( -3.2489356102e-02 8.6341809651e-01 5.0344178647e-01 )	( -1.8930495025e-02 5.0308574689e-01 -8.6402914745e-01 )	( -9.9929278898e-01 -3.7602152888e-02 -3.8163916471e-17 )	(( -8.2780250776e+00 1.4639233963e+01 -3.1829243604e+01 ) (-9.1407388421e-01 ( 3.8745866864e-01 -3.3946075534e-02 -1.1485807876e-01 )))	( 0.0000000000e+00 0.0000000000e+00 0.0000000000e+00 )	( -2.8308577591e+02 -1.0652167957e+01 -1.0811307782e-14 )	( 0.0000000000e+00 0.0000000000e+00 0.0000000000e+00 )	( 9.7749266321e+01 -2.8889641160e+03 -1.9656923241e-14 )	
0.5	( 4.9364524660e+00 4.5938848790e+01 1.2650000000e-01 )	( -2.7327991905e-01 9.2382686726e-01 -2.6807089579e-01 )	( 7.6041576160e-02 -2.5705968931e-01 -9.6339918768e-01 )	( -9.5892427466e-01 -2.8366218546e-01 -6.9388939039e-17 )	(( -1.1621819140e+01 1.4384777307e+01 -3.0527413862e+01 ) (-9.1407388421e-01 ( 3.8381191043e-01 6.2968034416e-02 -1.1485807876e-01 )))	( 0.0000000000e+00 0.0000000000e+00 0.0000000000e+00 )	( -2.7164993617e+02 -8.0357559621e+01 -1.9656923241e-14 )	( 0.0000000000e+00 0.0000000000e+00 0.0000000000e+00 )	( 8.0945163879e+02 -2.7749696624e+03 -5.8970769722e-13 )	
0.525	( 4.5507152058e+00 4.7130960139e+01 1.2650000000e-01 )	( -2.4570392920e-01 4.1212568866e-01 -8.7737221060e-01 )	( 4.4928956718e-01 -7.5360525526e-01 -4.7981038346e-01 )	( -8.5893449343e-01 -5.1208547724e-01 0.0000000000e+00 )	(( -1.4433212305e+01 1.2554755951e+01 -2.7302879263e+01 ) (-9.1407388421e-01 ( 3.5630158660e-01 1.5596709697e-01 -1.1485807876e-01 )))	( 0.0000000000e+00 0.0000000000e+00 0.0000000000e+00 )	( -2.4332421910e+02 -1.4506670743e+02 0.0000000000e+00 )	( 0.0000000000e+00 0.0000000000e+00 0.0000000000e+00 )	( 1.4708262289e+03 -2.4884410355e+03 1.3563277036e-12 )	
0.55	( 3.8820365150e+00 4.8190578709e+01 1.2650000000e-01 )	( 2.0843017683e-01 -2.0750976005e-01 -9.5577014018e-01 )	( 6.7732540952e-01 -6.7433437588e-01 2.9411467004e-01 )	( -7.0554032557e-01 -7.0866977429e-01 -1.3877787808e-16 )	(( -1.6021152803e+01 9.5976699551e+00 -2.2356125750e+01 ) (-9.1407388421e-01 ( 3.0663815583e-01 2.3926888084e-01 -1.1485807876e-01 )))	( 0.0000000000e+00 0.0000000000e+00 0.0000000000e+00 )	( -1.9986978061e+02 -2.0075631000e+02 -3.9313846481e-14 )	( 0.0000000000e+00 0.0000000000e+00 0.0000000000e+00 )	( 2.0407519679e+03 -2.0471931976e+03 -2.7519692537e-12 )	
0.575	( 2.9719915961e+00 4.9051822547e+01 1.2650000000e-01 )	( 7.6652076500e-01 -4.5240350420e-01 -4.5582560943e-01 )	( 3.9255355839e-01 -2.3168662026e-01 8.9006910618e-01 )	( -5.0827907750e-01 -8.6119241716e-01 -2.2204460493e-16 )	(( -1.5994328039e+01 6.2386243113e+00 -1.5994718498e+01 ) (-9.1407388421e-01 ( 2.3790944970e-01 3.0769408459e-01 -1.1485807876e-01 )))	( 0.0000000000e+00 0.0000000000e+00 0.0000000000e+00 )	( -1.4398840722e+02 -2.4396385755e+02 -6.2902154370e-14 )	( 0.0000000000e+00 0.0000000000e+00 0.0000000000e+00 )	( 2.4837936338e+03 -1.4786608020e+03 -6.2902154370e-13 )	
0.6	( 1.8771626343e+00 4.9661143684e+01 1.2650000000e-01 )	( 9.0970103502e-01 -2.6472863350e-01 3.1994183455e-01 )	( -3.0719864299e-01 8.9396707095e-02 9.4743718658e-01 )	( -2.7941549820e-01 -9.6017028665e-01 -1.3877787808e-16 )	(( -1.4357128833e+01 3.3017291086e+00 -8.6141789981e+00 ) (-9.1407388421e-01 ( 1.5438868630e-01 3.5698836044e-01 -1.1485807876e-01 )))	( 0.0000000000e+00 0.0000000000e+00 0.0000000000e+00 )	( -7.9154532068e+01 -2.7200291407e+02 -3.9313846481e-14 )	( 0.0000000000e+00 0.0000000000e+00 0.0000000000e+00 )	( 2.7724050415e+03 -8.1819243964e+02 1.8870646311e-12 )	
0.625	( 6.6562079185e-01 4.9980657483e+01 1.2650000000e-01 )	( 4.3126754986e-01 -1.4317002107e-02 9.0211048320e-01 )	( -9.0161379760e-01 2.9931319072e-02 4.3150512872e-01 )	( -3.3179216548e-02 -9.9944941822e-01 -1.2143064332e-16 )	(( -1.1508709736e+01 1.5082230349e+00 -6.7339345006e-01 ) (-9.1407388421e-01 ( 6.1268782142e-02 3.8408682909e-01 -1.1485807876e-01 )))	( 0.0000000000e+00 0.0000000000e+00 0.0000000000e+00 )	( -9.3992114866e+00 -2.8313014681e+02 -3.4399615671e-14 )	( 0.0000000000e+00 0.0000000000e+00 0.0000000000e+00 )	( 2.8886417317e+03 -1.0685283418e+02 -1.7691230916e-13 )	
0.65	( -5.8730612758e-01 4.9990498123e+01 1.2650000000e-01 )	( -3.3744361159e-01 -7.4331134035e-02 9.3840646391e-01 )	( -9.1643614056e-01 -2.0186998734e-01 -3.4553336812e-01 )	( 2.1511998809e-01 -9.7658762573e-01 -1.2490009027e-16 )	(( -8.1453670830e+00 1.2997531811e+00 7.3339185615e+00 ) (-9.1407388421e-01 ( -3.5660518135e-02 3.8730463900e-01 -1.1485807876e-01 )))	( 0.0000000000e+00 0.0000000000e+00 0.0000000000e+00 )	( 6.0940506540e+01 -2.7665371834e+02 -3.5382461833e-14 )	( 0.0000000000e+00 0.0000000000e+00 0.0000000000e+00 )	( 2.8252766700e+03 6.1113036297e+02 -1.5725538592e-13 )	
0.675	( -1.8037171966e+00 4.9690053760e+01 1.2650000000e-01 )	( -8.1575010953e-01 -4.1110962387e-01 4.0686685287e-01 )	( -3.6333468106e-01 -1.8310801595e-01 -9.1348747339e-01 )	( 4.5004407378e-01 -8.9300634469e-01 -1.9428902931e-16 )	(( -5.0901295094e+00 2.7300868628e+00 1.4909901159e+01 ) (-9.1407388421e-01 ( -1.3037262011e-01 3.6644172234e-01 -1.1485807876e-01 )))	( 0.0000000000e+00 0.0000000000e+00 0.0000000000e+00 )	( 1.2749123903e+02 -2.5297630161e+02 -5.5039385073e-14 )	( 0.0000000000e+00 0.0000000000e+00 0.0000000000e+00 )	( 2.5862495889e+03 1.2911164341e+03 -1.1597584712e-12 )	
0.7	( -2.9079818664e+00 4.9098004571e+01 1.2650000000e-01 )	( -7.0013743096e-01 -6.1013335184e-01 -3.7087042310e-01 )	( 2.7960004804e-01 2.4365689784e-01 -9.2868462315e-01 )	( 6.5698659872e-01 -7.5390225434e-01 -1.9428902931e-16 )	(( -3.0912788820e+00 5.4517779781e+00 2.1583516437e+01 ) (-9.1407388421e-01 ( -2.1697878402e-01 3.2279523422e-01 -1.1485807876e-01 )))	( 0.0000000000e+00 0.0000000000e+00 0.0000000000e+00 )	( 1.8611518377e+02 -2.1357004372e+02 -5.5039385073e-14 )	( 0.0000000000e+00 0.0000000000e+00 0.0000000000e+00 )	( 2.1864220347e+03 1.8908271388e+03 3.9313846481e-13 )	
0.725	( -3.8314423084e+00 4.8251161306e+01 1.2650000000e-01 )	( -2.1690667041e-01 -3.1435839737e-01 -9.2419169783e-01 )	( 5.2487080595e-01 7.6068451502e-01 -3.8192892750e-01 )	( 8.2308087901e-01 -5.6792417329e-01 -2.2204460493e-16 )	(( -2.6391290595e+00 8.8010629825e+00 2.6939831322e+01 ) (-9.1407388421e-01 ( -2.9009425806e-01 2.5907890186e-01 -1.1485807876e-01 )))	( 0.0000000000e+00 0.0000000000e+00 0.0000000000e+00 )	( 2.3316738782e+02 -1.6088503493e+02 -6.2902154370e-14 )	( 0.0000000000e+00 0.0000000000e+00 0.0000000000e+00 )	( 1.6506533481e+03 2.3729753701e+03 -4.7176615777e-13 )	
0.75	( -4.5166822250e+00 4.7202176578e+01 1.2650000000e-01 )	( 1.3724482552e-01 3.7138640099e-01 -9.1827882423e-01 )	( 3.1830787210e-01 8.6134551580e-01 3.9593433922e-01 )	( 9.3799997677e-01 -3.4663531784e-01 -2.3592239273e-16 )	(( -3.8459224158e+00 1.1960211613e+01 3.0645816096e+01 ) (-9.1407388421e-01 ( -3.4517307618e-01 1.7925429821e-01 -1.1485807876e-01 )))	( 0.0000000000e+00 0.0000000000e+00 0.0000000000e+00 )	( 2.6572237302e+02 -9.8196973891e+01 -6.6833539018e-14 )	( 0.0000000000e+00 0.0000000000e+00 0.0000000000e+00 )	( 1.0122550311e+03 2.7075834862e+03 -7.8627692962e-14 )	
0.775	( -4.9210967169e+00 4.6016271176e+01 1.2650000000e-01 )	( 9.6966273773e-02 9.2916937002e-01 -3.5670971891e-01 )	( 3.7024455988e-02 3.5478305092e-01 9.3421527307e-01 )	( 9.9459877911e-01 -1.0379435722e-01 -2.5673907444e-16 )	(( -6.4182532223e+00 1.4157593303e+01 3.2471050576e+01 ) (-9.1407388421e-01 ( -3.7879070424e-01 8.8284530509e-02 -1.1485807876e-01 )))	( 0.0000000000e+00 0.0000000000e+00 0.0000000000e+00 )	( 2.8175602808e+02 -2.9403500629e+01 -7.2730615990e-14 )	( 0.0000000000e+00 0.0000000000e+00 0.0000000000e+00 )	( 3.1091959913e+02 2.8738471750e+03 -2.7519692537e-13 )	
0.8	( -5.0195412500e+00 4.4767178954e+01 1.2650000000e-01 )	( -1.3199715501e-01 8.9754256695e-01 4.2070665741e-01 )	( 6.1212832876e-02 -4.1622960092e-01 9.0719673082e-01 )	( 9.8935824662e-01 1.4550003381e-01 -2.7755575616e-16 )	(( -9.7287755614e+00 1.4856484900e+01 3.2302050523e+01 ) (-9.1407388421e-01 ( -3.8885696096e-01 -8.1743417034e-03 -1.1485807876e-01 )))	( 0.0000000000e+00 0.0000000000e+00 0.0000000000e+00 )	( 2.8027145797e+02 4.1218139889e+01 -7.8627692962e-14 )	( 0.0000000000e+00 0.0000000000e+00 0.0000000000e+00 )	( -4.0974730765e+02 2.8614289658e+03 -2.3588307889e-13 )	
0.825	( -4.8058950199e+00 4.3532562418e+01 1.2650000000e-01 )	( -1.2777044089e-01 3.0559216334e-01 9.4355081694e-01 )	( 3.6397278151e-01 -8.7052395628e-01 3.3122780055e-01 )	( 9.2260421024e-01 3.8574793745e-01 -1.8041124150e-16 )	(( -1.2969647134e+01 1.3886400096e+01 3.0149323542e+01 ) (-9.1407388421e-01 ( -3.7474597524e-01 -1.0412497294e-01 -1.1485807876e-01 )))	( 0.0000000000e+00 0.0000000000e+00 0.0000000000e+00 )	( 2.6136096607e+02 1.0927703611e+02 -5.1108000425e-14 )	( 0.0000000000e+00 0.0000000000e+00 0.0000000000e+00 )	( -1.1049381114e+03 2.6711009626e+03 1.7691230916e-12 )	
0.85	( -4.2934415145e+00 4.2389184043e+01 1.2650000000e-01 )	( 2.6799711697e-01 -3.5546181590e-01 8.9544650467e-01 )	( 5.3906945403e-01 -7.1500249403e-01 -4.4516913333e-01 )	( 7.9848711262e-01 6.0201190268e-01 -1.3877787808e-16 )	(( -1.5350150037e+01 1.1484791456e+01 2.6146715768e+01 ) (-9.1407388421e-01 ( -3.3733509983e-01 -1.9360161768e-01 -1.1485807876e-01 )))	( 0.0000000000e+00 0.0000000000e+00 0.0000000000e+00 )	( 2.2620031519e+02 1.7054161549e+02 -3.9313846481e-14 )	( 0.0000000000e+00 0.0000000000e+00 0.0000000000e+00 )	( -1.7314292151e+03 2.3146968388e+03 1.5725538592e-13 )	
0.875	( -3.5140426106e+00 4.1408133559e+01 1.2650000000e-01 )	( 7.4351458681e-01 -5.9485680987e-01 3.0550193936e-01 )	( 2.3854987068e-01 -1.9085437944e-01 -9.5219145399e-01 )	( 6.2472395375e-01 7.8084568361e-01 -8.3266726847e-17 )	(( -1.6290114452e+01 8.2389173523e+00 2.0543089969e+01 ) (-9.1407388421e-01 ( -2.7895036177e-01 -2.7104105153e-01 -1.1485807876e-01 )))	( 0.0000000000e+00 0.0000000000e+00 0.0000000000e+00 )	( 1.7697562429e+02 2.2120274323e+02 -2.3588307889e-14 )	( 0.0000000000e+00 0.0000000000e+00 0.0000000000e+00 )	( -2.2502684362e+03 1.8143760767e+03 7.0764923666e-13 )	
0.9	( -2.5161575572e+00 4.0650407933e+01 1.2650000000e-01 )	( 8.0456155047e-01 -3.6391578826e-01 -4.6930375084e-01 )	( -4.2759684941e-01 1.9340875091e-01 -8.8303679960e-01 )	( 4.1211848524e-01 9.1113026188e-01 -8.3266726847e-17 )	(( -1.5561799042e+01 4.9421065949e+00 1.3686852454e+01 ) (-9.1407388421e-01 ( -2.0322184130e-01 -3.3162846556e-01 -1.1485807876e-01 )))	( 0.0000000000e+00 0.0000000000e+00 0.0000000000e+00 )	( 1.1674744624e+02 2.5811055577e+02 -2.3588307889e-14 )	( 0.0000000000e+00 0.0000000000e+00 0.0000000000e+00 )	( -2.6291968650e+03 1.2012461978e+03 -3.1451077185e-13 )	
0.925	( -1.3618300136e+00 4.0163118875e+01 1.2650000000e-01 )	( 2.7529216970e-01 -4.8610993775e-02 -9.6013082056e-01 )	( -9.4550339406e-01 1.6695665428e-01 -2.7955108194e-01 )	( 1.7388948538e-01 9.8476517347e-01 -4.8572257327e-17 )	(( -1.3345501084e+01 2.3996093226e+00 6.0042908647e+00 ) (-9.1407388421e-01 ( -1.1485797101e-01 -3.7159682782e-01 -1.1485807876e-01 )))	( 0.0000000000e+00 0.0000000000e+00 0.0000000000e+00 )	( 4.9260477445e+01 2.7897030410e+02 -1.3759846268e-14 )	( 0.0000000000e+00 0.0000000000e+00 0.0000000000e+00 )	( -2.8446545670e+03 5.1342864855e+02 5.8970769722e-13 )	
0.95	( -1.2283047579e-01 3.9976563659e+01 1.2650000000e-01 )	( -4.9169834604e-01 -3.7056471547e-02 -8.6997675510e-01 )	( -8.6751659673e-01 -6.5379727922e-02 4.9309273527e-01 )	( -7.5151120462e-02 9.9717215620e-01 -6.2450045135e-17 )	(( -1.0185290283e+01 1.2315633164e+00 -2.0269303285e+00 ) (-9.1407388421e-01 ( -1.9352788399e-02 -3.8846109912e-01 -1.1485807876e-01 )))	( 0.0000000000e+00 0.0000000000e+00 0.0000000000e+00 )	( -2.1289269253e+01 2.8248503008e+02 -1.7691230916e-14 )	( 0.0000000000e+00 0.0000000000e+00 0.0000000000e+00 )	( -2.8832454259e+03 -2.0631140734e+02 -4.3245231129e-13 )	
0.975	( 1.1238060661e+00 4.0102341383e+01 1.2650000000e-01 )	( -9.1665370774e-01 -3.0909106789e-01 -2.5339434058e-01 )	( -2.4011135958e-01 -8.0964355371e-02 9.6736306946e-01 )	( -3.1951919362e-01 9.4757980398e-01 -1.1102230246e-16 )	(( -6.8557118322e+00 1.7213090171e+00 -9.9074686908e+00 ) (-9.1407388421e-01 ( 7.7355656864e-02 -3.8117274076e-01 -1.1485807876e-01 )))	( 0.0000000000e+00 0.0000000000e+00 0.0000000000e+00 )	( -9.0515352301e+01 2.6843620509e+02 -3.1451077185e-14 )	( 0.0000000000e+00 0.0000000000e+00 0.0000000000e+00 )	( -2.7425700489e+03 -9.1322401917e+02 -7.4696308314e-13 )	
1	( 2.3005697899e+00 4.0532631799e+01 1.2650000000e-01 )	( -7.1847680395e-01 -4.6583221512e-01 5.1651856650e-01 )	( 4.3339602339e-01 2.8099700434e-01 8.5627598965e-01 )	( -5.4402111089e-01 8.3907152908e-01 -5.5511151231e-17 )	(( -4.1721000452e+00 3.7461819189e+00 -1.7147350516e+01 ) (-9.1407388421e-01 ( 1.6925450205e-01 -3.5018490756e-01 -1.1485807876e-01 )))	( 0.0000000000e+00 0.0000000000e+00 0.0000000000e+00 )	( -1.5411362915e+02 2.3769731702e+02 -1.5725538592e-14 )	( 0.0000000000e+00 0.0000000000e+00 0.0000000000e+00 )	( -2.4313749498e+03 -1.5633567846e+03 1.2187292409e-12 )	
1.025	( 3.3342952268e+00 4.1240681532e+01 1.2650000000e-01 )	( -1.5402998805e-01 -1.6681399806e-01 9.7388287429e-01 )	( 6.6067615300e-01 7.1551021914e-01 2.2705097922e-01 )	( -7.3469843040e-01 6.7839385047e-01 -2.7755575616e-17 )	(( -2.7909475355e+00 6.8077165778e+00 -2.3296435017e+01 ) (-9.1407388421e-01 ( 2.5062992207e-01 -2.9742427290e-01 -1.1485807876e-01 )))	( 0.0000000000e+00 0.0000000000e+00 0.0000000000e+00 )	( -2.0812986697e+02 1.9217956104e+02 -7.8627692962e-15 )	( 0.0000000000e+00 0.0000000000e+00 0.0000000000e+00 )	( -1.9690087325e+03 -2.1162875972e+03 1.5725538592e-13 )	
1.05	( 4.1607103359e+00 4.2182467480e+01 1.2650000000e-01 )	( 2.5658260314e-01 4.7465215587e-01 8.4194459360e-01 )	( 4.0037574558e-01 7.4065508912e-01 -5.3956399185e-01 )	( -8.7969575997e-01 4.7553692800e-01 2.7755575616e-17 )	(( -3.0492070722e+00 1.0153856579e+01 -2.7972401903e+01 ) (-9.1407388421e-01 ( 3.1642238744e-01 -2.2617123751e-01 -1.1485807876e-01 )))	( 0.0000000000e+00 0.0000000000e+00 0.0000000000e+00 )	( -2.4920559773e+02 1.3471301076e+02 7.8627692962e-15 )	( 0.0000000000e+00 0.0000000000e+00 0.0000000000e+00 )	( -1.3842190889e+03 -2.5376378971e+03 7.8627692962e-13 )	
1.075	( 4.7284326283e+00 4.3299433953e+01 1.2650000000e-01 )	( 2.3817467873e-01 9.5029278156e-01 2.0054039924e-01 )	( 4.8754062820e-02 1.9452375969e-01 -9.7968543333e-01 )	( -9.6999786792e-01 2.4311342256e-01 2.0816681712e-17 )	(( -4.8818684969e+00 1.2963238740e+01 -3.0884522200e+01 ) (-9.1407388421e-01 ( 3.6254124133e-01 -1.4085597001e-01 -1.1485807876e-01 )))	( 0.0000000000e+00 0.0000000000e+00 0.0000000000e+00 )	( -2.7478693142e+02 6.8870657949e+01 5.8970769722e-15 )	( 0.0000000000e+00 0.0000000000e+00 0.0000000000e+00 )	( -7.1336540669e+02 -2.8012101633e+03 -4.3245231129e-13 )	
1.1	( 5.0021638817e+00 4.4522133387e+01 1.2650000000e-01 )	( -3.6600217950e-03 8.2698502262e-01 -5.6221203883e-01 )	( 2.4881806891e-03 -5.6220653283e-01 -8.2699312174e-01 )	( -9.9999020655e-01 -4.4256979881e-03 9.9746599869e-18 )	(( -7.8379861002e+00 1.4546422742e+01 -3.1851734374e+01 ) (-9.1407388421e-01 ( 3.8611903677e-01 -4.6782960513e-02 -1.1485807876e-01 )))	( 0.0000000000e+00 0.0000000000e+00 0.0000000000e+00 )	( -2.8328334463e+02 -1.2537388068e+00 2.8256827158e-15 )	( 0.0000000000e+00 0.0000000000e+00 0.0000000000e+00 )	( 1.8418813540e+00 -2.8906167491e+03 -1.4496980890e-13 )	
1.125	( 4.9648848126e+00 4.5774544252e+01 1.2650000000e-01 )	( -4.3764331233e-02 1.6828451135e-01 -9.8476647311e-01 )	( 2.4785552902e-01 -9.5306486835e-01 -1.7388212515e-01 )	( -9.6780799751e-01 -2.5168965007e-01 2.0816681712e-17 )	(( -1.1191225521e+01 1.4514789992e+01 -3.0813901855e+01 ) (-9.1407388421e-01 ( 3.8568982064e-01 5.0198786874e-02 -1.1485807876e-01 )))	( 0.0000000000e+00 0.0000000000e+00 0.0000000000e+00 )	( -2.7416657153e+02 -7.1300184156e+01 5.8970769722e-15 )	( 0.0000000000e+00 0.0000000000e+00 0.0000000000e+00 )	( 7.1693465013e+02 -2.8002987858e+03 2.4571154051e-13 )	
1.15	( 4.6189132528e+00 4.6978797706e+01 1.2650000000e-01 )	( 2.8246554636e-01 -5.1165454582e-01 -8.1143258553e-01 )	( 3.9216922999e-01 -7.1037042161e-01 5.8444602757e-01 )	( -8.7545217469e-01 -4.8330475875e-01 0.0000000000e+00 )	(( -1.4117855750e+01 1.2875753180e+01 -2.7835552043e+01 ) (-9.1407388421e-01 ( 3.6128027952e-01 1.4405941683e-01 -1.1485807876e-01 )))	( 0.0000000000e+00 0.0000000000e+00 0.0000000000e+00 )	( -2.4800344892e+02 -1.3691352939e+02 0.0000000000e+00 )	( 0.0000000000e+00 0.0000000000e+00 0.0000000000e+00 )	( 1.3874518948e+03 -2.5358718071e+03 -4.1525250346e-13 )	
1.175	( 3.9857600383e+00 4.8060019104e+01 1.2650000000e-01 )	( 6.7742047133e-01 -7.2073874151e-01 -1.4709579026e-01 )	( 1.0074154071e-01 -1.0718355046e-01 9.8912225154e-01 )	( -7.2866497583e-01 -6.8487031838e-01 -4.1633363423e-17 )	(( -1.5898597633e+01 1.0030962040e+01 -2.3101864304e+01 ) (-9.1407388421e-01 ( 3.1440808046e-01 2.2896312998e-01 -1.1485807876e-01 )))	( 0.0000000000e+00 0.0000000000e+00 0.0000000000e+00 )	( -2.0642067304e+02 -1.9401425450e+02 -1.1794153944e-14 )	( 0.0000000000e+00 0.0000000000e+00 0.0000000000e+00 )	( 1.9717041006e+03 -2.1137766018e+03 -5.8970769722e-13 )	
1.2	( 3.1047915694e+00 4.8950983335e+01 1.2650000000e-01 )	( 6.7109548870e-01 -4.2672272957e-01 6.0624958319e-01 )	( -5.1158611075e-01 3.2529710789e-01 7.9527444501e-01 )	( -5.3657291800e-01 -8.4385395873e-01 5.5511151231e-17 )	(( -1.6094898729e+01 6.6779433342e+00 -1.6907156414e+01 ) (-9.1407388421e-01 ( 2.4798750976e-01 2.9963102468e-01 -1.1485807876e-01 )))	( 0.0000000000e+00 0.0000000000e+00 0.0000000000e+00 )	( -1.5200365949e+02 -2.3905211296e+02 1.5725538592e-14 )	( 0.0000000000e+00 0.0000000000e+00 0.0000000000e+00 )	( 2.4333652953e+03 -1.5602570052e+03 1.8870646311e-12 )	
1.225	( 2.0307821984e+00 4.9596294558e+01 1.2650000000e-01 )	( 1.1423564231e-01 -3.7396895603e-02 9.9274956068e-01 )	( -9.4348024091e-01 3.0886360298e-01 1.2020112219e-01 )	( -3.1111935498e-01 -9.5037084707e-01 1.5265566589e-16 )	(( -1.4656465707e+01 3.6392583872e+00 -9.6365853066e+00 ) (-9.1407388421e-01 ( 1.6614827681e-01 3.5166931350e-01 -1.1485807876e-01 )))	( 0.0000000000e+00 0.0000000000e+00 0.0000000000e+00 )	( -8.8135794612e+01 -2.6922686886e+02 4.3245231129e-14 )	( 0.0000000000e+00 0.0000000000e+00 0.0000000000e+00 )	( 2.7437316217e+03 -9.0972818502e+02 1.1007877015e-12 )	
1.25	( 8.3050862635e-01 4.9955830447e+01 1.2650000000e-01 )	( -6.2622483316e-01 4.1624063671e-02 7.7853060034e-01 )	( -7.7681649331e-01 5.1633626560e-02 -6.2760664778e-01 )	( -6.6321897351e-02 -9.9779827918e-01 1.5959455979e-16 )	(( -1.1933716680e+01 1.6610103264e+00 -1.7421998785e+00 ) (-9.1407388421e-01 ( 7.3978748742e-02 3.8184250769e-01 -1.1485807876e-01 )))	( 0.0000000000e+00 0.0000000000e+00 0.0000000000e+00 )	( -1.8788072904e+01 -2.8266240203e+02 4.5210923453e-14 )	( 0.0000000000e+00 0.0000000000e+00 0.0000000000e+00 )	( 2.8835060049e+03 -2.0263687251e+02 -4.3245231129e-13 )	
