# Time       	mean(tauw)-Average	mean(tauw)-Delta
10	7.329188e-06	0.000000e+00
