# Region type : patch inlet
# Faces      : 336
# Area       : 7.007526e-03
# Scale factor: 1.000000e+00
# Time       	sum(phi)
