# Time           	Umin             	at location      	Umax             	at location      	Umean            	UstDev           	pmin             	at location      	pmax             	at location      	pmean            	pstDev           	Tmin             	at location      	Tmax             	at location      	Tmean            	TstDev           	totalVolume      
5e-07            3.5102523159e-15 ( -9.9891350167e-04 1.2222590895e-04 6.1738937560e-22 ) 1.7214218349e+02 ( -6.9837665884e-03 3.3333139781e-05 5.6735652652e-23 ) 2.3062898023e+00 9.9387959681e+00 -9.0287009814e+03 ( -6.9417598139e-03 3.3333694215e-05 -1.2690648402e-22 ) 2.9040560103e+05 ( -3.3609632942e-03 1.2222591081e-04 -2.3035968760e-22 ) 1.0035809486e+05 2.1823882239e+04 2.4927865698e+02 ( -6.9837755643e-03 7.7776876275e-05 2.3992279114e-22 ) 3.6563571553e+02 ( -3.3609761723e-03 1.5585034496e-03 -4.5641434845e-21 ) 3.0000797296e+02 8.1537718903e+00 1.7377965855e-09 
