# Time           	Umin             	at location      	Umax             	at location      	Umean            	UstDev           	pmin             	at location      	pmax             	at location      	pmean            	pstDev           	totalVolume      
0.00120482       6.1504219577e-04 ( -7.3079069502e-01 -1.8186581598e+00 9.9924591678e+00 ) 1.3484102138e-01 ( 5.5298586398e-01 8.5787670209e-01 2.0008478656e+01 ) 2.6499573774e-02 2.0753222420e-02 -3.3295359201e+00 ( 8.1797987585e-01 -2.4812881161e-01 2.1850512063e+01 ) 3.4927380683e+02 ( -2.4718514742e-01 8.1395338392e-01 9.6430980039e+00 ) 1.6662997796e+02 1.5897004044e+02 2.8093590568e+02 
0.00265769       6.2652047358e-04 ( 1.8190796885e+00 -7.3098732717e-01 9.9924517168e+00 ) 1.4500463497e-01 ( 3.5061042890e-01 -9.5746113478e-01 2.0008485365e+01 ) 2.6594014515e-02 2.1394160544e-02 -2.1348770858e-01 ( 4.6467378077e-02 -1.0474949369e+00 2.0009021069e+01 ) 2.7961760241e+01 ( 5.0615497817e-02 5.0615310723e-02 5.5128203700e+00 ) 8.6252053555e+00 8.0732073420e+00 2.8093590568e+02 
0.00439595       6.3099286861e-04 ( -1.8190792093e+00 -7.3098717008e-01 9.9924517222e+00 ) 1.4785073801e-01 ( 3.5061042890e-01 -9.5746113478e-01 2.0008485365e+01 ) 2.6476468456e-02 2.1624881738e-02 -1.1851905981e+01 ( 5.0615497817e-02 5.0615310723e-02 4.4873826459e+00 ) 1.1342668086e+01 ( 5.0615497817e-02 5.0615310723e-02 5.5129358635e+00 ) -1.9250596112e-02 1.3289370580e+00 2.8093590568e+02 
0.00647429       6.3434376170e-04 ( -1.8190792093e+00 -7.3098717008e-01 9.9924517222e+00 ) 1.4926869868e-01 ( -3.5061042902e-01 -9.5746113475e-01 2.0008485365e+01 ) 2.6390934208e-02 2.1987312295e-02 -1.3034293154e+01 ( 5.0615497817e-02 5.0615310723e-02 4.4876110537e+00 ) 1.0593044716e+01 ( 5.0615497817e-02 5.0615310723e-02 5.5131642713e+00 ) -4.8390929361e-01 1.4737569674e+00 2.8093590568e+02 
0.0089355        6.3710525587e-04 ( -1.8190792093e+00 -7.3098717008e-01 9.9924517222e+00 ) 1.6474428686e-01 ( 3.6571117423e-01 2.6228266290e-01 5.5371531465e+00 ) 2.6402510068e-02 2.2569798081e-02 -1.3590663465e+01 ( 5.0615497817e-02 5.0615310723e-02 4.4880094174e+00 ) 1.0442905327e+01 ( 5.0615497817e-02 5.0615310723e-02 5.5135626350e+00 ) -6.6457487501e-01 1.5576809585e+00 2.8093590568e+02 
