# Force          
# CofR           : ( 0.0000000000e+00 0.0000000000e+00 0.0000000000e+00 )
#                
# Time           	(total_x total_y total_z)	(pressure_x pressure_y pressure_z)	(viscous_x viscous_y viscous_z)
50               	( -4.8104336868e+03 2.5323252405e+03 4.8687623624e+03 )	( -4.8088497631e+03 2.5260623240e+03 4.8643371726e+03 )	( -1.5839237909e+00 6.2629165391e+00 4.4251897199e+00 )
