# Time           	Umin             	at location      	Umax             	at location      	Umean            	UstDev           	pmin             	at location      	pmax             	at location      	pmean            	pstDev           
25               1.6762311230e-01 ( 1.2000000000e+01 1.2800000000e+02 2.9829593285e-01 ) 1.4830907966e+01 ( 6.8000000000e+01 -4.8000000000e+01 3.9608325185e+02 ) 8.7948537979e+00 1.0954214156e+00 -3.9983398430e+01 ( 3.9955136891e+00 1.4400448632e+02 3.9606596247e+02 ) 5.6635897271e+01 ( 3.9989327055e+00 -4.0000000000e+01 3.9608006064e+02 ) -9.8922259906e-01 2.1360120965e+00 
