# Time           	Umin             	at location      	Umax             	at location      	Umean            	UstDev           	kmin             	at location      	kmax             	at location      	kmean            	kstDev           	epsilonmin       	at location      	epsilonmax       	at location      	epsilonmean      	epsilonstDev     	pmin             	at location      	pmax             	at location      	pmean            	pstDev           
10               9.9151752191e-02 ( -5.1887983045e-01 6.5195464492e+00 6.1126099663e-02 ) 7.5060376692e+00 ( 1.8925577346e+01 1.2556256698e-01 2.0156207752e-01 ) 5.3248107275e+00 6.6671517343e-01 2.8161099464e-03 ( -3.7002726202e+01 -3.1001957063e+01 3.6732848909e+00 ) 7.6201455302e-01 ( 2.0681130544e+01 -9.1803557792e-01 2.6039268815e-01 ) 8.3805725712e-02 1.1009696406e-01 6.5304703038e-04 ( -3.9006205619e+01 -3.1003614006e+01 3.6755753632e+00 ) 7.7874542701e+00 ( 2.0681130544e+01 -9.1803557792e-01 2.6039268815e-01 ) 5.8746711078e-03 1.3257438823e-02 -4.0487072271e+01 ( -6.0479193230e+00 3.7637815294e+00 2.9986912144e-01 ) 1.7782805886e+01 ( 4.7500376956e+00 8.0621778843e+00 1.7516830013e+00 ) 3.0134823025e-02 9.0518034254e-01 
