# Wall heat-flux 
# Time           	patch            	min              	max              	integral         
1.0000000000e+01	solid_to_default	-7.3810489472e+02	-3.8159929294e+02	-2.1707837320e+03
