# Region type :  patch outlet
# Faces          : 160
# Area           : 1.0471508241e-03
# Scale factor   : 1.0000000000e+00
# Time           	sum(phi)
0.0110607        	3.5964836835e-06
