# Moment         
# CofR           : ( 0.0000000000e+00 0.0000000000e+00 0.0000000000e+00 )
#                
# Time           	(total_x total_y total_z)	(pressure_x pressure_y pressure_z)	(viscous_x viscous_y viscous_z)
1                	( -9.4738489819e-01 2.7790009833e+00 2.0761411882e+00 )	( -9.4528297680e-01 2.7844763246e+00 2.0661440440e+00 )	( -2.1019213896e-03 -5.4753413344e-03 9.9971441872e-03 )
2                	( -4.3786466053e-01 1.4713287911e+00 1.0800271868e+00 )	( -4.3605655309e-01 1.4761963604e+00 1.0713295033e+00 )	( -1.8081074330e-03 -4.8675692774e-03 8.6976835111e-03 )
3                	( 6.6198369679e-02 1.6548452629e-01 5.7239301231e-02 )	( 6.8018982133e-02 1.7063739183e-01 4.8274221780e-02 )	( -1.8206124539e-03 -5.1528655382e-03 8.9650794507e-03 )
4                	( 2.4476092716e-01 -3.0604729443e-01 -3.4411103367e-01 )	( 2.4629851281e-01 -3.0138551388e-01 -3.5198770163e-01 )	( -1.5375856572e-03 -4.6617805557e-03 7.8766679634e-03 )
5                	( 1.4779897913e-01 -1.0596325018e-01 -2.0132055163e-01 )	( 1.4913761187e-01 -1.0185975469e-01 -2.0828441272e-01 )	( -1.3386327406e-03 -4.1034954848e-03 6.9638610874e-03 )
6                	( -1.3511436159e-02 2.4238215086e-01 8.5795165809e-02 )	( -1.2279431830e-02 2.4593620525e-01 7.9504763796e-02 )	( -1.2320043290e-03 -3.5540543937e-03 6.2904020138e-03 )
7                	( -1.0986714259e-01 4.5474154307e-01 2.7024635489e-01 )	( -1.0867848710e-01 4.5795191294e-01 2.6432864231e-01 )	( -1.1886554974e-03 -3.2103698639e-03 5.9177125829e-03 )
8                	( -1.1674911258e-01 4.7559720211e-01 2.9521589563e-01 )	( -1.1558456955e-01 4.7863775558e-01 2.8950785319e-01 )	( -1.1645430291e-03 -3.0405534707e-03 5.7080424370e-03 )
9                	( -7.8093067129e-02 4.0438409280e-01 2.3370549095e-01 )	( -7.6956709464e-02 4.0731000955e-01 2.2817039336e-01 )	( -1.1363576651e-03 -2.9259167431e-03 5.5350975842e-03 )
10               	( -4.3584719297e-02 3.4449048318e-01 1.7343813388e-01 )	( -4.2494237070e-02 3.4727386844e-01 1.6812318714e-01 )	( -1.0904822265e-03 -2.7833852603e-03 5.3149467448e-03 )
11               	( -3.3550552597e-02 3.3484446437e-01 1.5337175682e-01 )	( -3.2515569205e-02 3.3744630864e-01 1.4831533890e-01 )	( -1.0349833921e-03 -2.6018442717e-03 5.0564179155e-03 )
12               	( -3.8670092118e-02 3.4762197559e-01 1.5947547641e-01 )	( -3.7688567309e-02 3.5003247111e-01 1.5467192736e-01 )	( -9.8152480907e-04 -2.4104955201e-03 4.8035490512e-03 )
13               	( -4.5846365401e-02 3.5754911033e-01 1.7019168877e-01 )	( -4.4906890744e-02 3.5979153503e-01 1.6559546365e-01 )	( -9.3947465746e-04 -2.2424246941e-03 4.5962251146e-03 )
14               	( -4.8869425652e-02 3.5723991816e-01 1.7463867486e-01 )	( -4.7960140659e-02 3.5935231893e-01 1.7019681320e-01 )	( -9.0928499274e-04 -2.1124007710e-03 4.4418616591e-03 )
15               	( -4.7771620177e-02 3.5138723360e-01 1.7265448539e-01 )	( -4.6884820864e-02 3.5340097106e-01 1.6832960064e-01 )	( -8.8679931322e-04 -2.0137374652e-03 4.3248847554e-03 )
16               	( -4.5427241356e-02 3.4667486885e-01 1.6871354580e-01 )	( -4.4559718466e-02 3.4860568838e-01 1.6448963964e-01 )	( -8.6752288964e-04 -1.9308195274e-03 4.2239061619e-03 )
17               	( -4.4108521503e-02 3.4625168911e-01 1.6644580980e-01 )	( -4.3259578708e-02 3.4810414671e-01 1.6231921739e-01 )	( -8.4894279496e-04 -1.8524575987e-03 4.1265924053e-03 )
18               	( -4.4175072729e-02 3.4890029135e-01 1.6649283222e-01 )	( -4.3344240467e-02 3.5067567728e-01 1.6246144792e-01 )	( -8.3083226216e-04 -1.7753859367e-03 4.0313842987e-03 )
19               	( -4.4825697345e-02 3.5167831919e-01 1.6754466154e-01 )	( -4.4011263610e-02 3.5337983727e-01 1.6360135667e-01 )	( -8.1443373435e-04 -1.7015180773e-03 3.9433048640e-03 )
20               	( -4.5193962060e-02 3.5268397871e-01 1.6814160817e-01 )	( -4.4392977989e-02 3.5431962152e-01 1.6427308481e-01 )	( -8.0098407104e-04 -1.6356428089e-03 3.8685233543e-03 )
21               	( -4.5022019631e-02 3.5179790039e-01 1.6776120459e-01 )	( -4.4231338246e-02 3.5337711451e-01 1.6395315306e-01 )	( -7.9068138451e-04 -1.5792141172e-03 3.8080515306e-03 )
22               	( -4.4620401646e-02 3.5038784097e-01 1.6692953835e-01 )	( -4.3837394155e-02 3.5192012378e-01 1.6316948530e-01 )	( -7.8300749104e-04 -1.5322828112e-03 3.7600530435e-03 )
23               	( -4.4316362123e-02 3.4951821269e-01 1.6624236389e-01 )	( -4.3539279342e-02 3.5101071629e-01 1.6252192412e-01 )	( -7.7708278028e-04 -1.4925036000e-03 3.7204397708e-03 )
24               	( -4.4280860173e-02 3.4963191647e-01 1.6604653099e-01 )	( -4.3508675351e-02 3.5108984420e-01 1.6236054540e-01 )	( -7.7218482135e-04 -1.4579277277e-03 3.6859855903e-03 )
25               	( -4.4453159994e-02 3.5044699432e-01 1.6626932293e-01 )	( -4.3685137094e-02 3.5187449233e-01 1.6261380985e-01 )	( -7.6802290003e-04 -1.4274980052e-03 3.6555130820e-03 )
26               	( -4.4669271423e-02 3.5135885205e-01 1.6660372721e-01 )	( -4.3904886386e-02 3.5275922849e-01 1.6297568660e-01 )	( -7.6438503696e-04 -1.4003764402e-03 3.6280406125e-03 )
27               	( -4.4813169571e-02 3.5193229186e-01 1.6680046652e-01 )	( -4.4052036205e-02 3.5330822486e-01 1.6319772325e-01 )	( -7.6113336686e-04 -1.3759329952e-03 3.6027432745e-03 )
28               	( -4.4838871657e-02 3.5198009058e-01 1.6674578485e-01 )	( -4.4080478564e-02 3.5333461212e-01 1.6316538654e-01 )	( -7.5839309326e-04 -1.3545215326e-03 3.5803983052e-03 )
29               	( -4.4784081108e-02 3.5163176489e-01 1.6648655999e-01 )	( -4.4027928258e-02 3.5296766749e-01 1.6292562850e-01 )	( -7.5615284932e-04 -1.3359026019e-03 3.5609314905e-03 )
30               	( -4.4703271945e-02 3.5111132487e-01 1.6613497513e-01 )	( -4.3948858826e-02 3.5243153610e-01 1.6259043904e-01 )	( -7.5441311877e-04 -1.3202112329e-03 3.5445360980e-03 )
31               	( -4.4610943628e-02 3.5046005587e-01 1.6571455895e-01 )	( -4.3857869310e-02 3.5176715324e-01 1.6218367298e-01 )	( -7.5307431730e-04 -1.3070973652e-03 3.5308859635e-03 )
32               	( -4.4514119139e-02 3.4970340610e-01 1.6524574058e-01 )	( -4.3762145492e-02 3.5099945781e-01 1.6172655087e-01 )	( -7.5197364689e-04 -1.2960517027e-03 3.5191897079e-03 )
33               	( -4.4406692539e-02 3.4882698055e-01 1.6473255904e-01 )	( -4.3655610289e-02 3.5011401158e-01 1.6122315381e-01 )	( -7.5108224996e-04 -1.2870310271e-03 3.5094052270e-03 )
34               	( -4.4278364507e-02 3.4779951700e-01 1.6416813003e-01 )	( -4.3527982734e-02 3.4907943866e-01 1.6066675091e-01 )	( -7.5038177275e-04 -1.2799216633e-03 3.5013791253e-03 )
35               	( -4.4131781069e-02 3.4665658145e-01 1.6357136282e-01 )	( -4.3381845605e-02 3.4793136782e-01 1.6007602120e-01 )	( -7.4993546409e-04 -1.2747863726e-03 3.4953416197e-03 )
36               	( -4.3975468264e-02 3.4543821514e-01 1.6296081201e-01 )	( -4.3225727313e-02 3.4670960639e-01 1.5946966474e-01 )	( -7.4974095155e-04 -1.2713912487e-03 3.4911472649e-03 )
37               	( -4.3822150877e-02 3.4420240267e-01 1.6236742764e-01 )	( -4.3072341668e-02 3.4547200259e-01 1.5887864764e-01 )	( -7.4980920874e-04 -1.2695999244e-03 3.4887799966e-03 )
38               	( -4.3683466794e-02 3.4299547997e-01 1.6182272904e-01 )	( -4.2933350644e-02 3.4426476157e-01 1.5833466032e-01 )	( -7.5011614985e-04 -1.2692815914e-03 3.4880687229e-03 )
39               	( -4.3564279593e-02 3.4184113829e-01 1.6132994222e-01 )	( -4.2813694268e-02 3.4311135150e-01 1.5784134783e-01 )	( -7.5058532491e-04 -1.2702132076e-03 3.4885943955e-03 )
40               	( -4.3463948019e-02 3.4074562563e-01 1.6088584316e-01 )	( -4.2712643399e-02 3.4201803968e-01 1.5739509095e-01 )	( -7.5130462025e-04 -1.2724140491e-03 3.4907522094e-03 )
41               	( -4.3381622336e-02 3.3972685171e-01 1.6049795502e-01 )	( -4.2629442222e-02 3.4100207648e-01 1.5700406855e-01 )	( -7.5218011393e-04 -1.2752247710e-03 3.4938864652e-03 )
42               	( -4.3319220289e-02 3.3882273671e-01 1.6018032478e-01 )	( -4.2565870418e-02 3.4010204654e-01 1.5668149122e-01 )	( -7.5334987086e-04 -1.2793098273e-03 3.4988335579e-03 )
43               	( -4.3275565984e-02 3.3803788328e-01 1.5992994279e-01 )	( -4.2520926720e-02 3.3932185730e-01 1.5642533317e-01 )	( -7.5463926448e-04 -1.2839740167e-03 3.5046096134e-03 )
44               	( -4.3245340699e-02 3.3736877140e-01 1.5973477400e-01 )	( -4.2489328519e-02 3.3865764780e-01 1.5622384199e-01 )	( -7.5601218005e-04 -1.2888764027e-03 3.5109320066e-03 )
45               	( -4.3228398699e-02 3.3681164200e-01 1.5958621401e-01 )	( -4.2470937392e-02 3.3810569675e-01 1.5606843790e-01 )	( -7.5746130691e-04 -1.2940547456e-03 3.5177761143e-03 )
46               	( -4.3221256824e-02 3.3634320342e-01 1.5946630172e-01 )	( -4.2462336694e-02 3.3764241900e-01 1.5594157153e-01 )	( -7.5892012981e-04 -1.2992155830e-03 3.5247301813e-03 )
47               	( -4.3220431890e-02 3.3594717068e-01 1.5936171501e-01 )	( -4.2460044156e-02 3.3725157133e-01 1.5582990321e-01 )	( -7.6038773348e-04 -1.3044006524e-03 3.5318118027e-03 )
48               	( -4.3220690026e-02 3.3558304971e-01 1.5924841701e-01 )	( -4.2458798412e-02 3.3689275968e-01 1.5570924018e-01 )	( -7.6189161372e-04 -1.3097099678e-03 3.5391768298e-03 )
49               	( -4.3224982561e-02 3.3524508943e-01 1.5913440589e-01 )	( -4.2461512573e-02 3.3656046386e-01 1.5558732468e-01 )	( -7.6346998802e-04 -1.3153744345e-03 3.5470812074e-03 )
50               	( -4.3238002413e-02 3.3494067067e-01 1.5903949535e-01 )	( -4.2472901433e-02 3.3626199983e-01 1.5548409974e-01 )	( -7.6510098017e-04 -1.3213291544e-03 3.5553956070e-03 )
