# Time           	Tmin             	at location      	Tmax             	at location      	Tmean            	TstDev           	Umin             	at location      	Umax             	at location      	Umean            	UstDev           	kmin             	at location      	kmax             	at location      	kmean            	kstDev           	nutmin           	at location      	nutmax           	at location      	nutmean          	nutstDev         	omegamin         	at location      	omegamax         	at location      	omegamean        	omegastDev       	pmin             	at location      	pmax             	at location      	pmean            	pstDev           	rhomin           	at location      	rhomax           	at location      	rhomean          	rhostDev         
0.2              2.9999999905e+02 ( 6.7566627116e-01 1.1282683763e+00 -2.9833694676e+00 ) 3.0000001867e+02 ( -2.9250139960e+00 -2.9250139960e+00 2.9252091991e+00 ) 3.0000000038e+02 1.1126321636e-06 1.8048049951e-06 ( 3.7499999651e-02 3.7499999651e-02 -2.9904000006e+00 ) 1.2289933800e-02 ( 2.9250139960e+00 2.9250139960e+00 2.9252091991e+00 ) 4.0713664149e-04 7.6301847521e-04 1.7995798701e-03 ( -6.9376823892e-01 -6.9376823892e-01 -2.9942537550e+00 ) 3.3274146944e-03 ( 7.1326416403e-01 7.1326437109e-01 -2.9597904006e+00 ) 3.1935169030e-03 2.1777574439e-05 2.8483290532e-05 ( -6.9376823892e-01 -6.9376823892e-01 -2.9942537550e+00 ) 4.8862968892e-04 ( 7.1326416403e-01 7.1326437109e-01 -2.9597904006e+00 ) 3.3056038840e-04 1.0941060267e-05 6.8096504297e+00 ( 7.1326421456e-01 -7.1326471904e-01 -2.9597901867e+00 ) 6.3180195702e+01 ( -6.9376823892e-01 -6.9376823892e-01 -2.9942537550e+00 ) 9.6775922685e+00 5.3374822368e-01 -3.3754729408e+01 ( -2.9250139960e+00 -2.9250139960e+00 2.9252091991e+00 ) 3.4559322087e+01 ( 6.9376794854e-01 6.9376823892e-01 -2.9942537550e+00 ) 1.5363989667e-03 1.9981510384e+01 1.1760197411e+00 ( -2.9250139960e+00 -2.9250139960e+00 2.9252091991e+00 ) 1.1768129620e+00 ( 6.9376794854e-01 6.9376823892e-01 -2.9942537550e+00 ) 1.1764117325e+00 2.3199259980e-04 
0.4              2.9999999767e+02 ( -2.9249992540e+00 -2.9249992540e+00 2.1819916076e+00 ) 3.0000004844e+02 ( -2.9250139960e+00 -2.9250139960e+00 2.9252091991e+00 ) 3.0000000120e+02 2.8369304367e-06 4.8462122285e-06 ( 3.7499999651e-02 3.7499999651e-02 -2.9904000006e+00 ) 2.3853254345e-02 ( 2.9250139960e+00 -2.9250139960e+00 2.9252091991e+00 ) 8.1237194234e-04 1.5059696926e-03 7.4825022402e-04 ( -6.9376823892e-01 -6.9376823892e-01 -2.9942537550e+00 ) 2.9448520907e-03 ( 7.1326416403e-01 7.1326437109e-01 -2.9597904006e+00 ) 2.7326866692e-03 3.6940306543e-05 1.4071973230e-05 ( -6.9376823892e-01 -6.9376823892e-01 -2.9942537550e+00 ) 4.5753699127e-04 ( 7.1326416403e-01 7.1326437109e-01 -2.9597904006e+00 ) 3.2634902898e-04 1.2642327021e-05 6.4362216434e+00 ( -7.1326432488e-01 -7.1326432474e-01 -2.9597903497e+00 ) 5.3174645330e+01 ( -6.9376823892e-01 6.9376823892e-01 -2.9942537550e+00 ) 8.3918757171e+00 4.9780447114e-01 -3.3754808158e+01 ( 2.9250139960e+00 2.9250139960e+00 2.9252091991e+00 ) 3.4559288339e+01 ( -6.9376823892e-01 -6.9376823892e-01 -2.9942537550e+00 ) 1.5031508916e-03 1.9981492414e+01 1.1760196235e+00 ( -2.9250139960e+00 -2.9250139960e+00 2.9252091991e+00 ) 1.1768129616e+00 ( 6.9376794854e-01 6.9376823892e-01 -2.9942537550e+00 ) 1.1764117289e+00 2.3199460284e-04 
0.6              2.9996112500e+02 ( 2.6249818559e-01 -1.1249999016e-01 -2.9904016681e+00 ) 1.5125894388e+04 ( 3.7499999651e-02 3.7499999651e-02 -2.9904000006e+00 ) 3.0008576373e+02 2.4003369727e+01 4.7048103887e-06 ( 2.9248624478e+00 -7.5000000000e-02 -1.4417263445e-04 ) 2.1840346592e+00 ( -3.7499999651e-02 -3.7499999651e-02 -2.9688000019e+00 ) 1.7365301552e-03 7.7044049243e-03 3.1922481789e-04 ( -6.9376823892e-01 -6.9376823892e-01 -2.9942537550e+00 ) 2.9893272482e-03 ( 3.7500062039e-02 3.7500062039e-02 -2.7653573008e+00 ) 2.3694797417e-03 4.6703293826e-05 7.8764545916e-07 ( 3.7499999651e-02 3.7499999651e-02 -2.9904000006e+00 ) 4.2654300943e-04 ( -7.1326432466e-01 7.1326432462e-01 -2.9597903434e+00 ) 3.2242607538e-04 1.4177403294e-05 6.0911192748e+00 ( 7.1326421456e-01 -7.1326471904e-01 -2.9597901867e+00 ) 6.5533095246e+02 ( 3.7499999651e-02 3.7499999651e-02 -2.9904000006e+00 ) 7.3709257778e+00 1.0745822662e+00 -3.3754801311e+01 ( 2.9250139960e+00 2.9250139960e+00 2.9252091991e+00 ) 3.6011232213e+01 ( -3.7499999651e-02 -3.7499999651e-02 -2.9904000006e+00 ) 7.1432877902e-03 1.9986860260e+01 2.3340698647e-02 ( 3.7499999651e-02 3.7499999651e-02 -2.9904000006e+00 ) 1.1769672696e+00 ( 2.6249818559e-01 -1.1249999016e-01 -2.9904016681e+00 ) 1.1763497634e+00 6.0203405829e-03 
0.8              2.9998120986e+02 ( -1.1249999016e-01 3.3748584319e-01 -2.9904139140e+00 ) 4.7074802031e+04 ( -3.7499999651e-02 -3.7499999651e-02 -2.9904000006e+00 ) 3.0044157957e+02 1.0859325079e+02 2.3502673831e-05 ( -2.0249498118e+00 -2.1749439690e+00 2.8944386635e-01 ) 5.0972863048e+00 ( -3.7499999651e-02 -3.7499999651e-02 -2.9418000035e+00 ) 1.9472060753e-03 2.0775797843e-02 1.5409423494e-04 ( -6.9376823892e-01 -6.9376823892e-01 -2.9942537550e+00 ) 1.5777029634e-02 ( 3.7499999651e-02 3.7499999651e-02 -2.9904000006e+00 ) 2.0846802358e-03 6.0935439386e-05 3.4909444264e-06 ( -6.9376823892e-01 -6.9376823892e-01 -2.9942537550e+00 ) 4.0089311287e-04 ( -7.1326432466e-01 7.1326432462e-01 -2.9597903434e+00 ) 3.1891891704e-04 1.5395810182e-05 5.7584155760e+00 ( -7.1326432488e-01 -7.1326432474e-01 -2.9597903497e+00 ) 1.6589675891e+03 ( -3.7499999651e-02 -3.7499999651e-02 -2.9904000006e+00 ) 6.5679048851e+00 3.1878525170e+00 -3.3754816183e+01 ( -2.9250139960e+00 -2.9250139960e+00 2.9252091991e+00 ) 3.4504431531e+01 ( -6.9376823892e-01 -6.9376823892e-01 -2.9942537550e+00 ) -3.5687819863e-03 1.9976370063e+01 7.4995734590e-03 ( -3.7499999651e-02 -3.7499999651e-02 -2.9904000006e+00 ) 1.1768829161e+00 ( -1.1249999016e-01 3.3748584319e-01 -2.9904139140e+00 ) 1.1762911961e+00 8.5941975237e-03 
1                2.9999696302e+02 ( -1.1249999016e-01 -3.3748584319e-01 -2.9904139140e+00 ) 9.7584648465e+04 ( 3.7499999651e-02 3.7499999651e-02 -2.9688000019e+00 ) 3.0107595579e+02 2.3347624430e+02 3.4938378963e-05 ( 2.1749043757e+00 2.3248947453e+00 1.4493358016e-01 ) 1.0117602673e+01 ( 3.7499999651e-02 -3.7499999651e-02 -2.9418000035e+00 ) 3.1571819467e-03 5.5841838543e-02 1.5174836883e-04 ( -6.9376823892e-01 -6.9376823892e-01 -2.9942537550e+00 ) 3.1461653808e-02 ( -1.1250097490e-01 -3.7500082977e-02 -2.6478700736e+00 ) 1.8614468530e-03 2.4065934367e-04 5.1729111367e-07 ( 3.7499999651e-02 -3.7499999651e-02 -2.9904000006e+00 ) 1.0260077073e-03 ( -1.1249144616e-01 -3.7509253759e-02 -2.5894277327e+00 ) 3.1592393573e-04 1.7620277181e-05 5.0691519707e+00 ( 2.9250139960e+00 -2.9250139960e+00 2.9252091991e+00 ) 3.8717282571e+03 ( -3.7499999651e-02 -3.7499999651e-02 -2.9904000006e+00 ) 5.9322411007e+00 6.6435407057e+00 -3.3754851471e+01 ( 2.9250139960e+00 -2.9250139960e+00 2.9252091991e+00 ) 3.4574790462e+01 ( 6.9376794854e-01 6.9376823892e-01 -2.9942537550e+00 ) 5.8394605457e-03 1.9984613755e+01 3.6178128164e-03 ( 3.7499999651e-02 3.7499999651e-02 -2.9688000019e+00 ) 1.1768240248e+00 ( -1.1249999016e-01 -3.3748584319e-01 -2.9904139140e+00 ) 1.1761970826e+00 1.1300108886e-02 
1.2              2.9999960612e+02 ( -1.1249998903e-01 -4.1241999940e-01 -2.9904855354e+00 ) 1.5433852627e+04 ( 3.7499999651e-02 -3.7499999651e-02 -2.9418000035e+00 ) 3.0064867969e+02 6.1744514339e+01 2.3871474788e-05 ( 1.5749197468e+00 2.9248882834e+00 3.6488202697e-04 ) 1.0667065405e+01 ( -3.7500062039e-02 -3.7500062039e-02 -2.7653573008e+00 ) 5.4252505968e-03 9.0417090277e-02 1.7873644802e-04 ( -6.9376823892e-01 -6.9376823892e-01 -2.9942537550e+00 ) 3.4132246200e-01 ( -1.1250675955e-01 -3.7497855839e-02 -2.3622793111e+00 ) 1.7285155324e-03 3.0013434681e-03 2.2325348906e-06 ( 3.7499999651e-02 3.7499999651e-02 -2.9688000019e+00 ) 5.0028642792e-03 ( -1.1379170538e-01 -3.6222742916e-02 -2.2692803097e+00 ) 3.1475015593e-04 6.0512263497e-05 4.4047127001e+00 ( 2.9250139960e+00 -2.9250139960e+00 2.9252091991e+00 ) 5.4444937010e+02 ( -3.7499999651e-02 3.7499999651e-02 -2.9904000006e+00 ) 5.3944820824e+00 1.5776481544e+00 -3.3754897564e+01 ( 2.9250139960e+00 -2.9250139960e+00 2.9252091991e+00 ) 3.4991793210e+01 ( -1.1249999016e-01 -3.7499999651e-02 -2.9904000084e+00 ) 1.1663731281e-02 1.9988480412e+01 2.2874569973e-02 ( 3.7499999651e-02 -3.7499999651e-02 -2.9418000035e+00 ) 1.1768147351e+00 ( -1.1249998903e-01 -4.1241999940e-01 -2.9904855354e+00 ) 1.1760070552e+00 1.5786627163e-02 
1.4              2.9999984411e+02 ( -1.1249996591e-01 -4.8716355050e-01 -2.9907920904e+00 ) 1.7925604689e+04 ( -3.7499999651e-02 -3.7499999651e-02 -2.9418000035e+00 ) 3.0083676169e+02 7.0500376195e+01 4.1427320286e-07 ( 2.6249403059e+00 -2.6249403059e+00 8.8517182568e-04 ) 8.9251504273e+00 ( -3.6222834700e-02 -3.6222834700e-02 -2.2692783822e+00 ) 8.4106339348e-03 9.4418283005e-02 1.7607765167e-04 ( 5.6138873462e-01 5.6138873461e-01 -2.9929282805e+00 ) 1.3049166094e+00 ( -1.1379170538e-01 -3.6222742916e-02 -2.2692803097e+00 ) 1.8235989892e-03 1.3358286044e-02 1.3528619004e-06 ( -3.7499999651e-02 -1.1249999016e-01 -2.9904000084e+00 ) 1.4681620241e-02 ( -1.1379170538e-01 -3.6222742916e-02 -2.2692803097e+00 ) 3.2073137593e-04 2.4773349512e-04 3.8506669579e+00 ( 2.9250139960e+00 -2.9250139960e+00 2.9252091991e+00 ) 6.6828486186e+02 ( 3.7499999651e-02 -3.7499999651e-02 -2.9904000006e+00 ) 4.9657675342e+00 1.8476867570e+00 -3.3754952844e+01 ( -2.9250139960e+00 -2.9250139960e+00 2.9252091991e+00 ) 3.4484543465e+01 ( -6.9376823892e-01 6.9376823892e-01 -2.9942537550e+00 ) 4.5525076101e-03 1.9978145692e+01 1.9694721237e-02 ( -3.7499999651e-02 -3.7499999651e-02 -2.9418000035e+00 ) 1.1768123463e+00 ( -6.9376823892e-01 6.9376823892e-01 -2.9942537550e+00 ) 1.1757669001e+00 1.9253217259e-02 
1.6              2.9999993829e+02 ( 1.8749810345e-01 -6.3615917352e-01 -2.9646268888e+00 ) 1.4068030730e+04 ( 3.7499999651e-02 -3.7499999651e-02 -2.9418000035e+00 ) 3.0088136305e+02 5.9651047473e+01 2.9457635919e-05 ( 2.9249612036e+00 2.3249542438e+00 9.1814221401e-04 ) 8.5988288835e+00 ( 3.7500090684e-02 -3.7500090684e-02 -2.7059156057e+00 ) 1.2426571086e-02 1.1440572839e-01 1.6125622300e-04 ( 5.6138873462e-01 -5.6138873462e-01 -2.9929282805e+00 ) 1.7984208454e+00 ( -1.1379170538e-01 -3.6222742916e-02 -2.2692803097e+00 ) 2.1171476095e-03 2.2471149998e-02 2.6629300347e-06 ( 3.7499999651e-02 3.7499999651e-02 -2.9688000019e+00 ) 2.2434554080e-02 ( -1.1379170538e-01 -3.6222742916e-02 -2.2692803097e+00 ) 3.3771486983e-04 5.3255115512e-04 3.3873715028e+00 ( 2.9250139960e+00 -2.9250139960e+00 2.9252091991e+00 ) 5.6704131345e+02 ( 3.7499999651e-02 -3.7499999651e-02 -2.9904000006e+00 ) 4.6083981061e+00 1.8405077373e+00 -3.3755025018e+01 ( 2.9250139960e+00 -2.9250139960e+00 2.9252091991e+00 ) 3.4758647941e+01 ( 1.1249999016e-01 1.1249999016e-01 -2.9904000162e+00 ) 4.6247301324e-03 1.9975553095e+01 2.5095305088e-02 ( 3.7499999651e-02 -3.7499999651e-02 -2.9418000035e+00 ) 1.1768125279e+00 ( 6.9376794854e-01 6.9376823892e-01 -2.9942537550e+00 ) 1.1754902062e+00 2.1889084628e-02 
1.8              2.9999988024e+02 ( 1.8749739233e-01 -6.3874070432e-01 -2.9241970730e+00 ) 1.2932886357e+04 ( -3.7499999651e-02 -3.7499999651e-02 -2.9418000035e+00 ) 3.0096627290e+02 5.5663892360e+01 5.4301793514e-05 ( 7.4998688431e-02 -7.4998688431e-02 2.7754436131e+00 ) 7.9556952347e+00 ( -3.7500084358e-02 -3.7500084358e-02 -2.6478693289e+00 ) 1.7732655187e-02 1.3128578476e-01 1.5241102145e-04 ( 5.6138873462e-01 -5.6138873462e-01 -2.9929282805e+00 ) 1.9820772426e+00 ( 1.1250675955e-01 -3.7497855839e-02 -2.3622793111e+00 ) 2.6104286170e-03 2.9323937436e-02 2.3481740507e-06 ( -3.7499999651e-02 -3.7499999651e-02 -2.9904000006e+00 ) 2.8331695257e-02 ( 1.1379170538e-01 -3.6222742916e-02 -2.2692803097e+00 ) 3.7072495916e-04 9.2331541224e-04 2.9997406564e+00 ( 2.9250139960e+00 -2.9250139960e+00 2.9252091991e+00 ) 5.1926703838e+02 ( -3.7499999651e-02 -3.7499999651e-02 -2.9904000006e+00 ) 4.3080007372e+00 1.8406147083e+00 -3.3755115021e+01 ( 2.9250139960e+00 -2.9250139960e+00 2.9252091991e+00 ) 3.4475904449e+01 ( -6.9376823892e-01 -6.9376823892e-01 -2.9942537550e+00 ) 2.2649818460e-03 1.9969464951e+01 2.7297875241e-02 ( -3.7499999651e-02 -3.7499999651e-02 -2.9418000035e+00 ) 1.1768122777e+00 ( -6.9376823892e-01 -6.9376823892e-01 -2.9942537550e+00 ) 1.1752045422e+00 2.3799752656e-02 
2                2.9999994199e+02 ( 1.8749739233e-01 -6.3874070432e-01 -2.9241970730e+00 ) 1.0121797860e+04 ( -3.7499999651e-02 -3.7499999651e-02 -2.9418000035e+00 ) 3.0099138638e+02 4.6598986864e+01 8.1309187249e-05 ( -2.4749675159e+00 -2.9249726335e+00 9.7293349240e-04 ) 7.7728748867e+00 ( -3.7509248847e-02 -3.7509248847e-02 -2.5894273724e+00 ) 2.3847963997e-02 1.4965232066e-01 1.4152798255e-04 ( 5.6138873462e-01 -5.6138873462e-01 -2.9929282805e+00 ) 1.9943310424e+00 ( 1.1379170538e-01 -3.6222742916e-02 -2.2692803097e+00 ) 3.3370783970e-03 3.6040060692e-02 4.7011589141e-06 ( 5.6138873462e-01 -5.6138873462e-01 -2.9929282805e+00 ) 3.0548848468e-02 ( -7.4998939954e-02 -7.4998939954e-02 -6.4542902201e-01 ) 4.2384832780e-04 1.4179536315e-03 2.6758036912e+00 ( 2.9250139960e+00 -2.9250139960e+00 2.9252091991e+00 ) 4.1168986177e+02 ( -3.7499999651e-02 -3.7499999651e-02 -2.9904000006e+00 ) 4.0532143648e+00 1.8067147355e+00 -3.3755220663e+01 ( 2.9250139960e+00 -2.9250139960e+00 2.9252091991e+00 ) 3.4602028216e+01 ( 1.8749983647e-01 3.7499999651e-02 -2.9904001415e+00 ) 4.3507591219e-03 1.9969149170e+01 3.4879303639e-02 ( -3.7499999651e-02 -3.7499999651e-02 -2.9418000035e+00 ) 1.1768126714e+00 ( 6.9376794854e-01 6.9376823892e-01 -2.9942537550e+00 ) 1.1749010499e+00 2.5296288549e-02 
2.2              2.9999988193e+02 ( 1.8749739233e-01 -6.3874070432e-01 -2.9241970730e+00 ) 5.4375847204e+03 ( -3.7499976770e-02 -3.7499976770e-02 -2.8934971678e+00 ) 3.0099831676e+02 3.4169210917e+01 1.2210958095e-04 ( -2.4749675159e+00 -2.9249726335e+00 9.7293349240e-04 ) 7.3569130550e+00 ( 3.7490997620e-02 -3.7490997620e-02 -2.5299605243e+00 ) 3.0940730728e-02 1.6666997686e-01 1.3280406759e-04 ( 5.6138873462e-01 -5.6138873462e-01 -2.9929282805e+00 ) 1.8478747229e+00 ( 3.6222742916e-02 -1.1379170538e-01 -2.2692803097e+00 ) 4.2877540567e-03 4.2882056613e-02 4.4310776340e-06 ( 5.6138873462e-01 -5.6138873462e-01 -2.9929282805e+00 ) 3.8618741182e-02 ( -7.5000215602e-02 -7.5000215602e-02 -3.4454835284e-01 ) 4.9933133965e-04 1.9924162755e-03 2.4052587434e+00 ( 2.9250139960e+00 -2.9250139960e+00 2.9252091991e+00 ) 2.6443913694e+02 ( -3.7499999651e-02 -3.7499999651e-02 -2.9904000006e+00 ) 3.8357202454e+00 1.7562008269e+00 -3.3755340585e+01 ( -2.9250139960e+00 -2.9250139960e+00 2.9252091991e+00 ) 3.4493918658e+01 ( -6.9376823892e-01 6.9376823892e-01 -2.9942537550e+00 ) -9.2254331058e-04 1.9962150718e+01 6.4925760800e-02 ( -3.7499976770e-02 -3.7499976770e-02 -2.8934971678e+00 ) 1.1768123926e+00 ( -6.9376823892e-01 -6.9376823892e-01 -2.9942537550e+00 ) 1.1745910251e+00 2.6505520305e-02 
2.4              2.9999986129e+02 ( -5.6286599504e-01 -1.8749869450e-01 -2.8461034304e+00 ) 4.0652044984e+03 ( -3.7499976770e-02 -3.7499976770e-02 -2.8934971678e+00 ) 3.0106017759e+02 2.9691733133e+01 1.8862883895e-04 ( 2.7749951977e+00 2.7749951977e+00 1.4533340687e-01 ) 7.5539758787e+00 ( 3.7490997620e-02 3.7490997620e-02 -2.5299605243e+00 ) 3.9067510172e-02 1.8520774754e-01 1.2241827655e-04 ( 4.8715867671e-01 4.8715867671e-01 -2.9911745292e+00 ) 1.7386340284e+00 ( 3.6222742916e-02 -1.1379170538e-01 -2.2692803097e+00 ) 5.4729210470e-03 5.0401494624e-02 4.3399412425e-06 ( 5.6138873462e-01 -5.6138873462e-01 -2.9929282805e+00 ) 4.6045385025e-02 ( -7.5003774269e-02 -7.5003774269e-02 -4.3955920771e-02 ) 5.9879527712e-04 2.6281847799e-03 2.1787204455e+00 ( 2.9250139960e+00 -2.9250139960e+00 2.9252091991e+00 ) 1.8650027743e+02 ( -3.7499999651e-02 -3.7499999651e-02 -2.9904000006e+00 ) 3.6510294133e+00 1.8007397933e+00 -3.3755466734e+01 ( 2.9250139960e+00 -2.9250139960e+00 2.9252091991e+00 ) 3.4487320701e+01 ( 6.9376794854e-01 6.9376823892e-01 -2.9942537550e+00 ) -4.7816156063e-03 1.9958223454e+01 8.6844006431e-02 ( -3.7499976770e-02 -3.7499976770e-02 -2.8934971678e+00 ) 1.1768122954e+00 ( 6.9376794854e-01 6.9376823892e-01 -2.9942537550e+00 ) 1.1742850791e+00 2.7556349197e-02 
2.6              2.9999988467e+02 ( -5.6286599504e-01 -1.8749869450e-01 -2.8461034304e+00 ) 3.5794554917e+03 ( -3.7499976770e-02 3.7499976770e-02 -2.8934971678e+00 ) 3.0113030844e+02 2.7628194662e+01 9.3079522048e-05 ( 2.7749951977e+00 -2.7749951977e+00 1.4533340687e-01 ) 7.6156385697e+00 ( -3.7503404802e-02 -3.7503404802e-02 -2.4541977326e+00 ) 4.7677151188e-02 2.0385602630e-01 1.1625687809e-04 ( 4.8715867671e-01 4.8715867671e-01 -2.9911745292e+00 ) 1.6861087849e+00 ( 3.6222742916e-02 -1.1379170538e-01 -2.2692803097e+00 ) 6.8780582449e-03 5.8048313438e-02 4.3484349381e-06 ( 5.6138873462e-01 -5.6138873462e-01 -2.9929282805e+00 ) 5.2609822899e-02 ( -7.5005665530e-02 -7.5005665530e-02 2.5528996536e-01 ) 7.2396422615e-04 3.3128857651e-03 1.9893500263e+00 ( 2.9250139960e+00 -2.9250139960e+00 2.9252091991e+00 ) 1.6808862340e+02 ( -3.7499999651e-02 3.7499999651e-02 -2.9904000006e+00 ) 3.4930283256e+00 1.8841073492e+00 -3.3755589396e+01 ( -2.9250139960e+00 -2.9250139960e+00 2.9252091991e+00 ) 3.4517842950e+01 ( 6.9376794854e-01 6.9376823892e-01 -2.9942537550e+00 ) -4.2253594125e-03 1.9959646424e+01 9.8629330764e-02 ( -3.7499976770e-02 3.7499976770e-02 -2.8934971678e+00 ) 1.1768124909e+00 ( 6.9376794854e-01 6.9376823892e-01 -2.9942537550e+00 ) 1.1739790208e+00 2.8355221310e-02 
2.8              2.9999987094e+02 ( 3.7501582702e-01 5.2491226397e-01 1.7348481462e+00 ) 2.9425935261e+03 ( 3.7499976770e-02 3.7499976770e-02 -2.8934971678e+00 ) 3.0116763994e+02 2.3850045848e+01 2.4832097135e-04 ( -2.0249816844e+00 -2.9249760961e+00 1.4527940103e-01 ) 7.4217074945e+00 ( -3.7497858964e-02 3.7497858964e-02 -2.3622798870e+00 ) 5.6606872951e-02 2.2125971500e-01 1.0920378062e-04 ( 4.8715867671e-01 4.8715867671e-01 -2.9911745292e+00 ) 1.4726862532e+00 ( 3.6222742916e-02 -1.1379170538e-01 -2.2692803097e+00 ) 8.4714178856e-03 6.5310566482e-02 4.2819623356e-06 ( 5.6138873462e-01 -5.6138873462e-01 -2.9929282805e+00 ) 5.8277921146e-02 ( -7.5004541994e-02 -7.5004541994e-02 5.5149619698e-01 ) 8.7677044051e-04 4.0421742172e-03 1.8316509825e+00 ( 2.9250139960e+00 -2.9250139960e+00 2.9252091991e+00 ) 1.4891752299e+02 ( 3.7499999651e-02 3.7499999651e-02 -2.9904000006e+00 ) 3.3555142087e+00 1.9441601142e+00 -3.3755707669e+01 ( -2.9250139960e+00 -2.9250139960e+00 2.9252091991e+00 ) 3.4541424778e+01 ( 3.3748584319e-01 -3.7499999654e-02 -2.9904139062e+00 ) -6.2300787884e-03 1.9960906685e+01 1.1997578365e-01 ( 3.7499976770e-02 3.7499976770e-02 -2.8934971678e+00 ) 1.1768127275e+00 ( 5.6138873462e-01 5.6138873461e-01 -2.9929282805e+00 ) 1.1736623755e+00 2.8852658121e-02 
3                2.9999977503e+02 ( -7.4999315943e-02 -7.4999315943e-02 2.9251330330e+00 ) 2.6474594638e+03 ( 3.7499976770e-02 3.7499976770e-02 -2.8934971678e+00 ) 3.0123533203e+02 2.2363707576e+01 1.0696294986e-04 ( 2.7749987706e+00 -2.6249988816e+00 2.8964087646e-01 ) 6.9229730865e+00 ( 3.7497858964e-02 3.7497858964e-02 -2.3622798870e+00 ) 6.6244920236e-02 2.3709029016e-01 1.0417816735e-04 ( -4.8715867671e-01 -4.8715867671e-01 -2.9911745292e+00 ) 1.1711701950e+00 ( 3.6222742916e-02 -1.1379170538e-01 -2.2692803097e+00 ) 1.0218105700e-02 7.2130036243e-02 4.2220828791e-06 ( 5.6138873462e-01 -5.6138873462e-01 -2.9929282805e+00 ) 6.3174364114e-02 ( -7.5003735170e-02 -7.5003735170e-02 8.4630759735e-01 ) 1.0584258207e-03 4.8099317421e-03 1.7017141734e+00 ( 2.9250139960e+00 -2.9250139960e+00 2.9252091991e+00 ) 1.4078570679e+02 ( 3.7499999651e-02 3.7499999651e-02 -2.9904000006e+00 ) 3.2348624549e+00 1.9781294566e+00 -3.3755821200e+01 ( 2.9250139960e+00 2.9250139960e+00 2.9252091991e+00 ) 3.4506072265e+01 ( 6.9376794854e-01 6.9376823892e-01 -2.9942537550e+00 ) -1.5545636024e-02 1.9957862520e+01 1.3335027834e-01 ( 3.7499976770e-02 3.7499976770e-02 -2.8934971678e+00 ) 1.1768123545e+00 ( 5.6138873462e-01 5.6138873461e-01 -2.9929282805e+00 ) 1.1733494066e+00 2.9336137848e-02 
3.2              2.9999958970e+02 ( -7.4999315943e-02 -7.4999315943e-02 2.9251330330e+00 ) 2.6237085171e+03 ( 3.7499976770e-02 3.7499976770e-02 -2.8934971678e+00 ) 3.0132794468e+02 2.2699771717e+01 1.6890491959e-04 ( 2.4749998329e+00 2.7749997975e+00 4.3399600476e-01 ) 6.7089746302e+00 ( 3.7497858964e-02 3.7497858964e-02 -2.3622798870e+00 ) 7.6174114104e-02 2.5324626630e-01 1.0420381709e-04 ( -4.8715867671e-01 -4.8715867671e-01 -2.9911745292e+00 ) 1.0306917934e+00 ( 7.5003599716e-02 -2.2501240830e-01 8.4618331286e-01 ) 1.2092311554e-02 7.8459249424e-02 4.2547581565e-06 ( -5.6138873462e-01 -5.6138873462e-01 -2.9929282805e+00 ) 6.7429775941e-02 ( -7.5004708916e-02 -7.5004708916e-02 1.1413398136e+00 ) 1.2695098831e-03 5.6051012393e-03 1.5962051300e+00 ( 2.9250139960e+00 -2.9250139960e+00 2.9252091991e+00 ) 1.4262453724e+02 ( 3.7499999651e-02 3.7499999651e-02 -2.9904000006e+00 ) 3.1296047398e+00 2.0140730694e+00 -3.3755928450e+01 ( -2.9250139960e+00 -2.9250139960e+00 2.9252091991e+00 ) 3.4513686852e+01 ( 6.9376794854e-01 6.9376823892e-01 -2.9942537550e+00 ) -2.1178155427e-02 1.9962372256e+01 1.3455729490e-01 ( 3.7499976770e-02 3.7499976770e-02 -2.8934971678e+00 ) 1.1768124156e+00 ( 5.6138873462e-01 5.6138873461e-01 -2.9929282805e+00 ) 1.1730458810e+00 2.9842584834e-02 
3.4              2.9999938648e+02 ( -2.2499666213e-01 -3.7498835173e-01 2.9251498647e+00 ) 2.2711903038e+03 ( 3.7499976770e-02 3.7499976770e-02 -2.8934971678e+00 ) 3.0139082768e+02 2.1218229644e+01 1.5337290190e-04 ( -2.9249997066e+00 -9.7499997272e-01 5.7843714976e-01 ) 6.8499559775e+00 ( 3.7497858964e-02 3.7497858964e-02 -2.3622798870e+00 ) 8.5632932421e-02 2.7015515813e-01 1.0467585239e-04 ( -4.8715867671e-01 -4.8715867671e-01 -2.9911745292e+00 ) 1.0211177170e+00 ( 7.5007286251e-02 -7.5007286251e-02 1.2890382237e+00 ) 1.4084955747e-02 8.4250633285e-02 4.2570320302e-06 ( -5.6138873462e-01 -5.6138873462e-01 -2.9929282805e+00 ) 7.1143978955e-02 ( -7.5010112676e-02 -7.5010112676e-02 1.4368747951e+00 ) 1.5109848605e-03 6.4217829418e-03 1.5118519854e+00 ( 2.9250139960e+00 -2.9250139960e+00 2.9252091991e+00 ) 1.3365818915e+02 ( -3.7499999651e-02 3.7499999651e-02 -2.9904000006e+00 ) 3.0377265375e+00 2.0550746094e+00 -3.3756031228e+01 ( 2.9250139960e+00 2.9250139960e+00 2.9252091991e+00 ) 3.4553815137e+01 ( -6.9376823892e-01 6.9376823892e-01 -2.9942537550e+00 ) -2.3351656822e-02 1.9973235016e+01 1.5544259139e-01 ( 3.7499976770e-02 3.7499976770e-02 -2.8934971678e+00 ) 1.1768128484e+00 ( -5.6138873462e-01 -5.6138873462e-01 -2.9929282805e+00 ) 1.1727388533e+00 3.0142297598e-02 
3.6              2.9999925844e+02 ( -5.2499461188e-01 -6.7499216511e-01 2.9251991641e+00 ) 1.7894049294e+03 ( 3.7500000748e-02 3.7500000748e-02 -2.8279412821e+00 ) 3.0143870652e+02 1.8689034033e+01 2.9098939643e-04 ( -2.6250000004e+00 -2.3250000007e+00 8.6771908787e-01 ) 6.7026279209e+00 ( 3.7497858964e-02 3.7497858964e-02 -2.3622798870e+00 ) 9.4703408483e-02 2.8685644815e-01 1.0726576755e-04 ( -4.8715867671e-01 -4.8715867671e-01 -2.9911745292e+00 ) 1.0013194555e+00 ( 7.5010070409e-02 -7.5010070409e-02 1.5848605215e+00 ) 1.6201766683e-02 8.9637732196e-02 4.2578933724e-06 ( -5.6138873462e-01 -5.6138873462e-01 -2.9929282805e+00 ) 7.4308203991e-02 ( -7.5006330892e-02 -7.5006330892e-02 1.7330099794e+00 ) 1.7843833678e-03 7.2587842160e-03 1.4456608681e+00 ( 2.9250139960e+00 -2.9250139960e+00 2.9252091991e+00 ) 1.1255897256e+02 ( -3.7499999651e-02 -3.7499999651e-02 -2.9904000006e+00 ) 2.9566477745e+00 2.0833041288e+00 -3.3756130980e+01 ( 2.9250139960e+00 2.9250139960e+00 2.9252091991e+00 ) 3.4537497128e+01 ( -6.9376823892e-01 6.9376823892e-01 -2.9942537550e+00 ) -3.2501353836e-02 1.9981613962e+01 1.9729323121e-01 ( 3.7500000748e-02 3.7500000748e-02 -2.8279412821e+00 ) 1.1768126481e+00 ( -5.6138873462e-01 -5.6138873462e-01 -2.9929282805e+00 ) 1.1724237364e+00 3.0390152566e-02 
3.8              2.9999917440e+02 ( -6.7499568092e-01 -8.2499480629e-01 2.9252126576e+00 ) 1.4790114270e+03 ( 3.7500000748e-02 3.7500000748e-02 -2.8279412821e+00 ) 3.0149905753e+02 1.7046284840e+01 9.6142410287e-05 ( -2.4750000031e+00 -2.4750000031e+00 1.1577512043e+00 ) 6.3308870884e+00 ( 3.6222834700e-02 3.6222834700e-02 -2.2692783822e+00 ) 1.0337531931e-01 3.0316969676e-01 1.1446406058e-04 ( -4.8715867671e-01 -4.8715867671e-01 -2.9911745292e+00 ) 9.7328686527e-01 ( 7.5001029451e-02 -7.5001029451e-02 1.8813363635e+00 ) 1.8427921795e-02 9.4682339727e-02 4.3284464118e-06 ( -5.6138873462e-01 -5.6138873462e-01 -2.9929282805e+00 ) 7.6892197342e-02 ( 7.4997574298e-02 -7.4997574298e-02 2.0298474327e+00 ) 2.0892450114e-03 8.1140777270e-03 1.3936188516e+00 ( -2.9250139960e+00 -2.9250139960e+00 2.9252091991e+00 ) 9.9935019642e+01 ( -3.7499999651e-02 -3.7499999651e-02 -2.9904000006e+00 ) 2.8848642947e+00 2.0996432260e+00 -3.3756193055e+01 ( 2.9250139960e+00 -2.9250139960e+00 2.9252091991e+00 ) 3.4525488655e+01 ( 6.9376794854e-01 6.9376823892e-01 -2.9942537550e+00 ) -4.3274543393e-02 1.9993124892e+01 2.3869806680e-01 ( 3.7500000748e-02 3.7500000748e-02 -2.8279412821e+00 ) 1.1768125055e+00 ( -5.6138873462e-01 -5.6138873462e-01 -2.9929282805e+00 ) 1.1721079711e+00 3.0666254359e-02 
4                2.9999912577e+02 ( -8.2499425431e-01 -9.7499263197e-01 2.9252279177e+00 ) 1.2976764271e+03 ( 3.7500000748e-02 3.7500000748e-02 -2.8279412821e+00 ) 3.0156319160e+02 1.5933885154e+01 2.0660946153e-04 ( 2.4750000027e+00 -2.4750000027e+00 1.4487792948e+00 ) 5.9150066155e+00 ( 3.6222834700e-02 3.6222834700e-02 -2.2692783822e+00 ) 1.1140394813e-01 3.1938672903e-01 1.2570256752e-04 ( 9.8722696735e-01 -5.2514575049e-01 -2.9873866763e+00 ) 9.3655305367e-01 ( 7.4996657468e-02 -7.4996657468e-02 2.1785502154e+00 ) 2.0687201377e-02 9.9345023996e-02 4.5006462883e-06 ( 5.6138873462e-01 -5.6138873462e-01 -2.9929282805e+00 ) 7.8739782534e-02 ( 7.4997140273e-02 -7.4997140273e-02 2.3274541758e+00 ) 2.4083546952e-03 8.9769833860e-03 1.3537792634e+00 ( -2.9250139960e+00 -2.9250139960e+00 2.9252091991e+00 ) 9.2208089321e+01 ( -3.7499999651e-02 -3.7499999651e-02 -2.9904000006e+00 ) 2.8200892871e+00 2.1093502259e+00 -3.3755347801e+01 ( 2.9250139960e+00 -2.9250139960e+00 2.9252091991e+00 ) 3.4529870480e+01 ( -6.9376823892e-01 6.9376823892e-01 -2.9942537550e+00 ) -5.0957364087e-02 2.0008450026e+01 2.7205325998e-01 ( 3.7500000748e-02 3.7500000748e-02 -2.8279412821e+00 ) 1.1768125123e+00 ( -5.6138873462e-01 -5.6138873462e-01 -2.9929282805e+00 ) 1.1717983928e+00 3.0865545210e-02 
4.2              2.9999915774e+02 ( 9.7499321651e-01 9.7499321651e-01 2.9252366892e+00 ) 1.1918140188e+03 ( 3.7500000748e-02 3.7500000748e-02 -2.8279412821e+00 ) 3.0162396450e+02 1.5227645036e+01 9.8721630460e-04 ( 2.6250000003e+00 2.3250000005e+00 1.5947369658e+00 ) 5.6581982324e+00 ( 3.6222834700e-02 3.6222834700e-02 -2.2692783822e+00 ) 1.1893780470e-01 3.3506284276e-01 1.1891251351e-04 ( 9.8722696735e-01 -5.2514575049e-01 -2.9873866763e+00 ) 9.1682820963e-01 ( 2.2499281172e-01 7.4998964965e-02 -6.4573549653e-01 ) 2.2712826094e-02 1.0345867873e-01 4.7616434219e-06 ( 5.6138873462e-01 -5.6138873462e-01 -2.9929282805e+00 ) 8.0075695846e-02 ( -7.4997751317e-02 -7.4997751317e-02 2.4765691997e+00 ) 2.6863328347e-03 9.7562802901e-03 1.3377451604e+00 ( 2.9250033214e+00 -2.1750000000e+00 2.9252537665e+00 ) 8.7013608374e+01 ( -3.7499999651e-02 -3.7499999651e-02 -2.9904000006e+00 ) 2.7580029567e+00 2.1209129799e+00 -3.3785119443e+01 ( 7.4999315943e-02 7.4999315943e-02 2.9251330330e+00 ) 3.4533237554e+01 ( -6.9376823892e-01 6.9376823892e-01 -2.9942537550e+00 ) -5.1562688191e-02 2.0018896249e+01 2.9621838429e-01 ( 3.7500000748e-02 3.7500000748e-02 -2.8279412821e+00 ) 1.1768124988e+00 ( -5.6138873462e-01 -5.6138873462e-01 -2.9929282805e+00 ) 1.1715210656e+00 3.1019520262e-02 
4.4              2.9999922224e+02 ( -9.7499467988e-01 -1.1249930873e+00 2.9252461138e+00 ) 1.1096115260e+03 ( 3.7500000748e-02 3.7500000748e-02 -2.8279412821e+00 ) 3.0165860460e+02 1.4564178469e+01 1.2733710424e-03 ( 2.6250000000e+00 -2.7750000000e+00 -2.9808000000e+00 ) 5.4851374325e+00 ( 3.6222834700e-02 3.6222834700e-02 -2.2692783822e+00 ) 1.2612473460e-01 3.4748514625e-01 1.1305137060e-04 ( 9.8722696735e-01 -5.2514575049e-01 -2.9873866763e+00 ) 9.1602274715e-01 ( 2.2499281172e-01 7.4998964965e-02 -6.4573549653e-01 ) 2.4051474184e-02 1.0614484144e-01 4.9913537563e-06 ( 5.6138873462e-01 -5.6138873462e-01 -2.9929282805e+00 ) 8.0837658916e-02 ( 7.4998790324e-02 -2.2499136350e-01 2.7754517406e+00 ) 2.8698132746e-03 1.0269422221e-02 1.3113925708e+00 ( 2.6249998197e+00 -2.6249998197e+00 2.9252640445e+00 ) 8.3171031432e+01 ( -3.7499999651e-02 -3.7499999651e-02 -2.9904000006e+00 ) 2.6935015688e+00 2.1328008590e+00 -3.3889882735e+01 ( -7.4999315943e-02 -7.4999315943e-02 2.9251330330e+00 ) 3.4546618092e+01 ( 6.9376823892e-01 -6.9376896487e-01 -2.9942537550e+00 ) -3.3846186771e-02 2.0011861045e+01 3.1816318349e-01 ( 3.7500000748e-02 3.7500000748e-02 -2.8279412821e+00 ) 1.1768126140e+00 ( -5.6138873462e-01 -5.6138873462e-01 -2.9929282805e+00 ) 1.1713384438e+00 3.1030827964e-02 