# Time           	Tmin             	at location      	Tmax             	at location      	Tmean            	TstDev           	Umin             	at location      	Umax             	at location      	Umean            	UstDev           	pmin             	at location      	pmax             	at location      	pmean            	pstDev           
0.00543562       3.0000000000e+02 ( 2.5000000000e-03 2.5000000000e-03 2.5000000000e-03 ) 3.0000000000e+02 ( 2.5000000000e-03 2.5000000000e-03 2.5000000000e-03 ) 3.0000000000e+02 3.0809133023e-11 1.2091216459e-08 ( 4.7500000000e-02 2.2500000000e-02 5.7500000000e-02 ) 3.7520733163e-07 ( 4.7500000000e-02 2.5000000000e-03 2.5000000000e-03 ) 1.2656858515e-07 5.5304320885e-08 -1.1176547726e+00 ( 5.2500000000e-02 2.7500000000e-02 9.7500000000e-02 ) -2.8657027963e-02 ( 5.2500000000e-02 2.7500000000e-02 2.5000000000e-03 ) -5.7315632611e-01 3.3049813506e-01 
