# Time           	Umin             	at location      	Umax             	at location      	Umean            	UstDev           	pmin             	at location      	pmax             	at location      	pmean            	pstDev           	alpha.watermin   	at location      	alpha.watermax   	at location      	alpha.watermean  	alpha.waterstDev 	totalVolume      
0.00089355       0.0000000000e+00 ( 2.7889820244e-02 1.7740755794e-01 5.0000000000e-04 ) 7.2867214960e-03 ( 2.8006681191e-02 1.9343350178e-01 5.0000000000e-04 ) 1.8330112190e-04 4.2407068796e-04 0.0000000000e+00 ( 2.7889820244e-02 1.7740755794e-01 5.0000000000e-04 ) 9.7810624764e+02 ( 6.0458333335e-02 5.6250000000e-04 5.0000000000e-04 ) 2.0587447326e+02 3.0388900981e+02 -6.4975926556e-28 ( -2.8375000000e-02 1.0181250000e-01 5.0000000000e-04 ) 1.0000000000e+00 ( -1.2125000000e-02 5.6250000000e-04 5.0000000000e-04 ) 4.1718749827e-01 4.9309438706e-01 3.1200000000e-05 
