# Time           	PC-Lawsonmin     	at location      	PC-Lawsonmax     	at location      	PC-Lawsonmean    	PC-LawsonstDev   	PC-Safetymin     	at location      	PC-Safetymax     	at location      	PC-Safetymean    	PC-SafetystDev   
50               1.0000000000e+00 ( 1.0580045019e+01 7.3077338218e+00 6.7180159531e-01 ) 5.0000000000e+00 ( 8.7506179071e+00 5.8808167398e+01 4.9044116844e+01 ) 4.1147727349e+00 6.9421704290e-01 1.0000000000e+00 ( 8.7506179071e+00 5.8808167398e+01 4.9044116844e+01 ) 1.0000000000e+00 ( 8.7506179071e+00 5.8808167398e+01 4.9044116844e+01 ) 1.0000000000e+00 0.0000000000e+00 
