# Time           	Tmin             	at location      	Tmax             	at location      	Tmean            	TstDev           
1                3.3344555696e+02 ( 5.2500784578e-02 4.8029745314e-02 2.3484170087e-02 ) 3.3479258367e+02 ( 5.7497920010e-02 5.7579226406e-02 2.8648079864e-02 ) 3.3411031486e+02 3.3675639539e-01 
2                3.7243815682e+02 ( 5.2500784578e-02 4.8029745314e-02 2.3484170087e-02 ) 3.7691178101e+02 ( 5.7500812379e-02 5.7582129144e-02 1.8394651507e-02 ) 3.7473183618e+02 1.1370747394e+00 
3                4.1609138374e+02 ( 4.7499213886e-02 4.8029745316e-02 2.3484170090e-02 ) 4.2329612723e+02 ( 5.7500812379e-02 5.7582129144e-02 1.8394651507e-02 ) 4.1977693089e+02 1.8490718548e+00 
4                4.6304075840e+02 ( 4.7499213886e-02 4.8029745316e-02 2.3484170090e-02 ) 4.7222592792e+02 ( 5.7500812379e-02 5.7582129144e-02 1.8394651507e-02 ) 4.6772857813e+02 2.3685707596e+00 
5                5.1211245757e+02 ( 4.7499213886e-02 4.8029745316e-02 2.3484170090e-02 ) 5.2257139179e+02 ( 5.7500812379e-02 5.7582129144e-02 1.8394651507e-02 ) 5.1744157172e+02 2.7061963170e+00 
6                5.6237769135e+02 ( 4.7499213886e-02 4.8029745316e-02 2.3484170090e-02 ) 5.7352438108e+02 ( 5.7500812379e-02 5.7582129144e-02 1.8394651507e-02 ) 5.6805985500e+02 2.8970280998e+00 
7                6.1309278834e+02 ( 4.7499213886e-02 4.8029745316e-02 2.3484170090e-02 ) 6.2450137102e+02 ( 5.7500812379e-02 5.7582129144e-02 1.8394651507e-02 ) 6.1890430647e+02 2.9716760440e+00 
8                6.6366862940e+02 ( 4.7499213886e-02 4.8029745316e-02 2.3484170090e-02 ) 6.7501711830e+02 ( 5.7500812379e-02 5.7582129144e-02 1.8394651507e-02 ) 6.6943809300e+02 2.9537869547e+00 
9                7.1358608817e+02 ( 4.7499213886e-02 4.8029745316e-02 2.3484170090e-02 ) 7.2460693468e+02 ( 5.7500812379e-02 5.7582129144e-02 1.8394651507e-02 ) 7.1916737932e+02 2.8566892066e+00 
10               7.6265734021e+02 ( 4.7499213886e-02 4.8029745316e-02 2.3484170090e-02 ) 7.7315694963e+02 ( 5.7500812379e-02 5.7582129144e-02 1.8394651507e-02 ) 7.6799501321e+02 2.7210871581e+00 
11               8.1036113856e+02 ( 4.7499213886e-02 4.8029745316e-02 2.3484170090e-02 ) 8.2005963314e+02 ( 5.7500812379e-02 5.7582129144e-02 1.8394651507e-02 ) 8.1530055857e+02 2.5098882732e+00 
12               8.5616294281e+02 ( 4.7499213886e-02 4.8029745316e-02 2.3484170090e-02 ) 8.6483369347e+02 ( 5.7500812379e-02 5.7582129144e-02 1.8394651507e-02 ) 8.6054238811e+02 2.2198282539e+00 
13               8.9954790893e+02 ( 4.7499213886e-02 4.8029745316e-02 2.3484170090e-02 ) 9.0692817953e+02 ( 5.7500812379e-02 5.7582129144e-02 1.8394651507e-02 ) 9.0321804524e+02 1.8604934346e+00 
14               9.4007059624e+02 ( 4.7499213886e-02 4.8029745316e-02 2.3484170090e-02 ) 9.4587995531e+02 ( 5.7500812379e-02 5.7582129144e-02 1.8394651507e-02 ) 9.4290234934e+02 1.4395174867e+00 
15               9.7734610982e+02 ( 4.7499213886e-02 4.8029745316e-02 2.3484170090e-02 ) 9.8135030407e+02 ( 5.7500812379e-02 5.7582129144e-02 1.8394651507e-02 ) 9.7923419593e+02 9.7895135415e-01 
16               1.0110941566e+03 ( 4.7499213886e-02 4.8029745316e-02 2.3484170090e-02 ) 1.0131277540e+03 ( 4.2499185723e-02 5.7582129140e-02 1.8394651507e-02 ) 1.0119609634e+03 5.3249921886e-01 
17               1.0399104687e+03 ( 4.2500898404e-02 4.3330765493e-02 2.8648124363e-02 ) 1.0415173810e+03 ( 5.2498794737e-02 5.2781606180e-02 2.3484118817e-02 ) 1.0409151559e+03 4.1654499494e-01 
18               1.0642265793e+03 ( 4.2500898404e-02 4.3330765493e-02 2.8648124363e-02 ) 1.0676901901e+03 ( 5.2498794737e-02 5.2781606180e-02 2.3484118817e-02 ) 1.0660188019e+03 8.4588787380e-01 
19               1.0847526243e+03 ( 4.2500898404e-02 4.3330765493e-02 2.8648124363e-02 ) 1.0900437527e+03 ( 5.2498794737e-02 5.2781606180e-02 2.3484118817e-02 ) 1.0873111634e+03 1.3859593046e+00 
20               1.1016990433e+03 ( 4.2500898404e-02 4.3330765493e-02 2.8648124363e-02 ) 1.1087387123e+03 ( 4.7501203750e-02 5.2781606162e-02 2.3484118807e-02 ) 1.1049798363e+03 1.9229706506e+00 
21               1.1151939787e+03 ( 5.7499099649e-02 4.3330765532e-02 2.8648124315e-02 ) 1.1239993425e+03 ( 4.7501203750e-02 5.2781606162e-02 2.3484118807e-02 ) 1.1192568683e+03 2.4322014414e+00 
22               1.1256755176e+03 ( 5.7502114233e-02 4.3328108022e-02 1.8394754660e-02 ) 1.1360908435e+03 ( 4.7501203750e-02 5.2781606162e-02 2.3484118807e-02 ) 1.1304481131e+03 2.8986462401e+00 
23               1.1335233551e+03 ( 5.7502114233e-02 4.3328108022e-02 1.8394754660e-02 ) 1.1453348571e+03 ( 4.7501203750e-02 5.2781606162e-02 2.3484118807e-02 ) 1.1389062064e+03 3.3123964157e+00 
24               1.1391264062e+03 ( 5.7502114233e-02 4.3328108022e-02 1.8394754660e-02 ) 1.1521208694e+03 ( 5.2498794737e-02 5.2781606180e-02 2.3484118817e-02 ) 1.1450163924e+03 3.6686765391e+00 
25               1.1428509325e+03 ( 5.7502114233e-02 4.3328108022e-02 1.8394754660e-02 ) 1.1568506761e+03 ( 5.2498794737e-02 5.2781606180e-02 2.3484118817e-02 ) 1.1491820552e+03 3.9655668660e+00 
26               1.1450760547e+03 ( 5.7502114233e-02 4.3328108022e-02 1.8394754660e-02 ) 1.1599197640e+03 ( 4.7501203750e-02 5.2781606162e-02 2.3484118807e-02 ) 1.1517944489e+03 4.2057727069e+00 
27               1.1461800084e+03 ( 5.7502114233e-02 4.3328108022e-02 1.8394754660e-02 ) 1.1617016571e+03 ( 4.7501203750e-02 5.2781606162e-02 2.3484118807e-02 ) 1.1532138770e+03 4.3920674308e+00 
28               1.1464837175e+03 ( 5.7502114233e-02 4.3328108022e-02 1.8394754660e-02 ) 1.1625115253e+03 ( 4.7501203750e-02 5.2781606162e-02 2.3484118807e-02 ) 1.1537551760e+03 4.5284361027e+00 
29               1.1462496950e+03 ( 5.7502114233e-02 4.3328108022e-02 1.8394754660e-02 ) 1.1626294421e+03 ( 4.7501203750e-02 5.2781606162e-02 2.3484118807e-02 ) 1.1536890484e+03 4.6222388255e+00 
30               1.1457015037e+03 ( 5.7502114233e-02 4.3328108022e-02 1.8394754660e-02 ) 1.1623002732e+03 ( 5.2498794737e-02 5.2781606180e-02 2.3484118817e-02 ) 1.1532337261e+03 4.6827697172e+00 
31               1.1450023082e+03 ( 5.7502114233e-02 4.3328108022e-02 1.8394754660e-02 ) 1.1617127513e+03 ( 5.2498794737e-02 5.2781606180e-02 2.3484118817e-02 ) 1.1525681055e+03 4.7163662918e+00 
32               1.1442666593e+03 ( 5.7502114233e-02 4.3328108022e-02 1.8394754660e-02 ) 1.1610061750e+03 ( 5.2498794737e-02 5.2781606180e-02 2.3484118817e-02 ) 1.1518319065e+03 4.7295876160e+00 
33               1.1435781647e+03 ( 5.7502114233e-02 4.3328108022e-02 1.8394754660e-02 ) 1.1602941076e+03 ( 5.2498794737e-02 5.2781606180e-02 2.3484118817e-02 ) 1.1511296483e+03 4.7270530868e+00 
34               1.1429998199e+03 ( 5.7502114233e-02 4.3328108022e-02 1.8394754660e-02 ) 1.1596646045e+03 ( 4.7501203750e-02 5.2781606162e-02 2.3484118807e-02 ) 1.1505326895e+03 4.7130131810e+00 
35               1.1425765257e+03 ( 5.7502114233e-02 4.3328108022e-02 1.8394754660e-02 ) 1.1591761330e+03 ( 4.7501203750e-02 5.2781606162e-02 2.3484118807e-02 ) 1.1500769243e+03 4.6923146300e+00 
36               1.1423379985e+03 ( 5.7502114233e-02 4.3328108022e-02 1.8394754660e-02 ) 1.1588289802e+03 ( 4.7501203750e-02 5.2781606162e-02 2.3484118807e-02 ) 1.1497719914e+03 4.6685296055e+00 
37               1.1422455078e+03 ( 4.2497883896e-02 4.3328107952e-02 1.8394754693e-02 ) 1.1586258996e+03 ( 5.2498794737e-02 5.2781606180e-02 2.3484118817e-02 ) 1.1496072099e+03 4.6459136191e+00 
38               1.1421770845e+03 ( 4.2497883896e-02 4.3328107952e-02 1.8394754693e-02 ) 1.1585617695e+03 ( 5.2498794737e-02 5.2781606180e-02 2.3484118817e-02 ) 1.1495681362e+03 4.6260301004e+00 
39               1.1422475059e+03 ( 4.2497883896e-02 4.3328107952e-02 1.8394754693e-02 ) 1.1586105859e+03 ( 5.2498794737e-02 5.2781606180e-02 2.3484118817e-02 ) 1.1496437874e+03 4.6079795418e+00 
40               1.1424171020e+03 ( 4.2497883896e-02 4.3328107952e-02 1.8394754693e-02 ) 1.1587490375e+03 ( 5.2498794737e-02 5.2781606180e-02 2.3484118817e-02 ) 1.1498063763e+03 4.5932328714e+00 
41               1.1426702770e+03 ( 4.2497883896e-02 4.3328107952e-02 1.8394754693e-02 ) 1.1589598279e+03 ( 5.2498794737e-02 5.2781606180e-02 2.3484118817e-02 ) 1.1500358126e+03 4.5811779201e+00 
42               1.1429988395e+03 ( 4.2497883896e-02 4.3328107952e-02 1.8394754693e-02 ) 1.1592274895e+03 ( 5.2498794737e-02 5.2781606180e-02 2.3484118817e-02 ) 1.1503213689e+03 4.5706648625e+00 
43               1.1433518812e+03 ( 5.7502114233e-02 4.3328108022e-02 1.8394754660e-02 ) 1.1595364918e+03 ( 5.2498794737e-02 5.2781606180e-02 2.3484118817e-02 ) 1.1506524638e+03 4.5628285997e+00 
44               1.1436912663e+03 ( 5.7502114233e-02 4.3328108022e-02 1.8394754660e-02 ) 1.1598739230e+03 ( 4.7501203750e-02 5.2781606162e-02 2.3484118807e-02 ) 1.1510010830e+03 4.5593096265e+00 
45               1.1440268971e+03 ( 4.2497883896e-02 4.3328107952e-02 1.8394754693e-02 ) 1.1602123582e+03 ( 5.2498794737e-02 5.2781606180e-02 2.3484118817e-02 ) 1.1513413703e+03 4.5598029308e+00 
46               1.1442732672e+03 ( 4.2497883896e-02 4.3328107952e-02 1.8394754693e-02 ) 1.1605340897e+03 ( 5.2498794737e-02 5.2781606180e-02 2.3484118817e-02 ) 1.1516500783e+03 4.5614706849e+00 
47               1.1444761139e+03 ( 4.2497883896e-02 4.3328107952e-02 1.8394754693e-02 ) 1.1607847537e+03 ( 5.2498794737e-02 5.2781606180e-02 2.3484118817e-02 ) 1.1518818938e+03 4.5712940376e+00 
48               1.1447136194e+03 ( 5.7502114233e-02 4.3328108022e-02 1.8394754660e-02 ) 1.1609956414e+03 ( 4.7501203750e-02 5.2781606162e-02 2.3484118807e-02 ) 1.1520813202e+03 4.5784487023e+00 
49               1.1449514119e+03 ( 5.7502114233e-02 4.3328108022e-02 1.8394754660e-02 ) 1.1611634542e+03 ( 5.2498794737e-02 5.2781606180e-02 2.3484118817e-02 ) 1.1522544550e+03 4.5817151825e+00 
50               1.1452015387e+03 ( 4.2499185723e-02 5.7582129140e-02 1.8394651507e-02 ) 1.1613722791e+03 ( 5.2498794737e-02 5.2781606180e-02 2.3484118817e-02 ) 1.1524780061e+03 4.5789988404e+00 
