# Wall heat-flux 
# Time           	patch            	min              	max              	integral         
1.0000000000e+00	coolingDuct	-1.8893080812e+01	7.4234360972e+00	-1.8914149008e-02
1.0000000000e+00	coolingDuct_slave	-4.5098443311e+00	3.3268744979e+00	6.7212835824e-02
1.0000000000e+00	inlet_slave	-2.0328790734e-20	1.0164395367e-20	-1.0484922544e-24
1.0000000000e+00	default_to_pad1	-4.7805297102e+04	-9.6553671086e+03	-2.9525295290e+02
1.0000000000e+00	default_to_disk	-7.2849547359e+03	-7.5567543897e+02	-7.9634357657e+02
1.0000000000e+00	default_to_pad2	-5.8052951021e+04	-9.2137377595e+03	-3.1191957464e+02
2.0000000000e+00	coolingDuct	-7.9418498788e+00	7.1184807221e+00	7.6906762739e-02
2.0000000000e+00	coolingDuct_slave	2.0880093266e-02	4.5758672351e+00	1.1352821677e-01
2.0000000000e+00	inlet_slave	-3.3881317890e-20	1.1434944788e-20	-3.6871923595e-24
2.0000000000e+00	default_to_pad1	-2.5432035406e+04	-4.6346304631e+03	-1.5182356985e+02
2.0000000000e+00	default_to_disk	-8.8562807839e+03	5.3645770940e+01	-1.1320311711e+03
2.0000000000e+00	default_to_pad2	-2.9775371393e+04	-3.1236938711e+03	-1.5672592264e+02
3.0000000000e+00	coolingDuct	-1.2145590505e+00	3.3073711957e+00	8.2940271592e-02
3.0000000000e+00	coolingDuct_slave	-1.0035270200e+01	7.0859024883e+00	9.0286558611e-02
3.0000000000e+00	inlet_slave	-8.4703294725e-21	3.3881317890e-21	-3.0974076826e-25
3.0000000000e+00	default_to_pad1	-2.4588748027e+04	-4.0880649994e+03	-1.4669231442e+02
3.0000000000e+00	default_to_disk	-1.2591929532e+04	2.1099827341e+03	-1.5090198948e+03
3.0000000000e+00	default_to_pad2	-2.9817603186e+04	-2.4710331281e+03	-1.5384494069e+02
4.0000000000e+00	coolingDuct	-2.9738392012e+00	4.7007723434e+00	6.9590207683e-02
4.0000000000e+00	coolingDuct_slave	-2.0685161760e+00	3.1790003904e+01	1.1581647075e-01
4.0000000000e+00	inlet_slave	-7.4115382885e-21	8.4703294725e-22	-5.9431249047e-25
4.0000000000e+00	default_to_pad1	-2.3116184148e+04	-4.1573484776e+03	-1.5277892589e+02
4.0000000000e+00	default_to_disk	-1.4986829163e+04	4.3664049162e+03	-1.7485337768e+03
4.0000000000e+00	default_to_pad2	-2.9015229198e+04	-2.6398237948e+03	-1.5823926525e+02
5.0000000000e+00	coolingDuct	-3.8761629598e+00	5.3715550176e+00	5.4726823705e-02
5.0000000000e+00	coolingDuct_slave	-3.2986984965e-01	5.2096718637e+00	1.2603271153e-01
5.0000000000e+00	inlet_slave	-1.3552527156e-20	5.0821976835e-21	-3.9128660228e-25
5.0000000000e+00	default_to_pad1	-2.1092324351e+04	-4.2186980760e+03	-1.5913482058e+02
5.0000000000e+00	default_to_disk	-1.7684774537e+04	6.4719941205e+03	-1.8733705640e+03
5.0000000000e+00	default_to_pad2	-2.7563376005e+04	-3.0305354193e+03	-1.6098134560e+02
6.0000000000e+00	coolingDuct	-3.5256076993e+00	1.1550772470e+01	5.0974599953e-02
6.0000000000e+00	coolingDuct_slave	5.4271215643e-01	8.4587988569e+00	1.5195241808e-01
6.0000000000e+00	inlet_slave	-7.1997800517e-21	1.3552527156e-20	1.7762865526e-24
6.0000000000e+00	default_to_pad1	-2.2287465776e+04	-4.1825747449e+03	-1.6431348021e+02
6.0000000000e+00	default_to_disk	-2.0474239551e+04	8.5566191525e+03	-1.9247656293e+03
6.0000000000e+00	default_to_pad2	-2.4996577425e+04	-3.4317830983e+03	-1.6036025590e+02
7.0000000000e+00	coolingDuct	-3.1595158785e+00	6.8142363843e+00	7.0548762784e-02
7.0000000000e+00	coolingDuct_slave	-9.9077120305e+00	8.4749749788e+00	1.8102706041e-01
7.0000000000e+00	inlet_slave	-4.0657581468e-20	5.9292306308e-21	-5.3182246217e-24
7.0000000000e+00	default_to_pad1	-2.4558797487e+04	-4.0277294795e+03	-1.6980477963e+02
7.0000000000e+00	default_to_disk	-2.2031367670e+04	1.0487814483e+04	-1.9353873068e+03
7.0000000000e+00	default_to_pad2	-2.4580287738e+04	-3.8955521203e+03	-1.5887277485e+02
8.0000000000e+00	coolingDuct	-2.5523646593e+00	7.2070123412e+00	8.1679796995e-02
8.0000000000e+00	coolingDuct_slave	1.0724809863e-01	6.7141344296e+00	2.2188437433e-01
8.0000000000e+00	inlet_slave	-1.3552527156e-20	5.4210108624e-20	1.0847426036e-24
8.0000000000e+00	default_to_pad1	-2.7075525744e+04	-3.7718054374e+03	-1.7589782284e+02
8.0000000000e+00	default_to_disk	-2.2550567650e+04	1.1908669117e+04	-1.9249570916e+03
8.0000000000e+00	default_to_pad2	-2.4054105563e+04	-4.2772654518e+03	-1.6098666179e+02
9.0000000000e+00	coolingDuct	-1.5644748283e+00	9.6735421953e+00	8.3926914758e-02
9.0000000000e+00	coolingDuct_slave	1.1244198803e+00	7.3409621926e+00	2.6841400881e-01
9.0000000000e+00	inlet_slave	-1.0842021725e-19	1.0842021725e-19	5.5601283282e-24
9.0000000000e+00	default_to_pad1	-3.0100261798e+04	-3.4791149455e+03	-1.8316802391e+02
9.0000000000e+00	default_to_disk	-2.2275795007e+04	1.2515389273e+04	-1.9053832534e+03
9.0000000000e+00	default_to_pad2	-2.3498090887e+04	-4.1630334317e+03	-1.6278700100e+02
1.0000000000e+01	coolingDuct	-3.4427196804e+01	9.7701324017e+01	4.2110178666e-03
1.0000000000e+01	coolingDuct_slave	-2.9161459001e+02	3.8227808281e+02	1.9605828345e+00
1.0000000000e+01	inlet_slave	-1.0842021725e-19	1.0842021725e-19	5.1694717055e-24
1.0000000000e+01	default_to_pad1	-4.1574092103e+04	-1.5777499626e+04	-4.3733464951e+02
1.0000000000e+01	default_to_disk	-2.2569242135e+04	1.4581946114e+04	-2.1867304961e+03
1.0000000000e+01	default_to_pad2	-3.4016274896e+04	-1.5081585285e+04	-4.1502853178e+02
