# Force          
# CofR           : ( 0.0000000000e+00 0.0000000000e+00 0.0000000000e+00 )
#                
# Time           	(total_x total_y total_z)	(pressure_x pressure_y pressure_z)	(viscous_x viscous_y viscous_z)
10               	( -7.3297814237e+03 2.2359478056e+03 6.0548859892e+03 )	( -7.3231108272e+03 2.2351634975e+03 6.0497023945e+03 )	( -6.6705965020e+00 7.8430807861e-01 5.1835947965e+00 )
