# Time       	U.rain1min   	at location  	U.rain1max   	at location  	U.rain1mean  	U.rain1stDev 	U.rain2min   	at location  	U.rain2max   	at location  	U.rain2mean  	U.rain2stDev 	U.rain3min   	at location  	U.rain3max   	at location  	U.rain3mean  	U.rain3stDev 	alpha.rain1min	at location  	alpha.rain1max	at location  	alpha.rain1mean	alpha.rain1stDev	alpha.rain2min	at location  	alpha.rain2max	at location  	alpha.rain2mean	alpha.rain2stDev	alpha.rain3min	at location  	alpha.rain3max	at location  	alpha.rain3mean	alpha.rain3stDev
20           9.645424e-02 ( 6.062761e+00 -3.261028e+00 3.250025e+00 ) 7.437931e+00 ( 8.999406e+00 3.899831e+01 4.900909e+01 ) 5.462776e+00 6.438540e-01 9.073926e-01 ( -2.500000e-01 3.771747e+00 8.054377e+00 ) 8.266888e+00 ( 8.999656e+00 4.099906e+01 4.901089e+01 ) 6.675296e+00 5.040202e-01 4.167071e+00 ( -2.249993e+00 4.062786e+00 7.261033e+00 ) 9.844168e+00 ( 8.998733e+00 3.499796e+01 3.904092e+01 ) 8.966681e+00 4.197357e-01 0.000000e+00 ( 6.249996e+00 8.063867e+00 2.750089e+00 ) 3.118055e-09 ( 1.680647e+01 5.698733e+01 4.905504e+01 ) 3.358985e-10 7.084286e-10 1.629027e-32 ( 6.102125e-01 1.418438e+01 3.817668e-01 ) 6.783093e-09 ( 5.078261e+01 3.086055e+01 4.903576e+01 ) 1.204697e-09 1.908436e-09 5.537004e-30 ( 2.101489e+01 -1.182385e-01 1.474832e-01 ) 8.260097e-10 ( -2.281200e+01 5.486964e+01 4.904713e+01 ) 1.471139e-10 2.251383e-10 
