# Wall heat-flux 
# Time           	patch            	min              	max              	integral         
5.0000000000e+01	solid_to_default	-8.0681931110e+02	4.6872330162e+02	-6.8250554582e+02
