# Time           	Umin             	at location      	Umax             	at location      	Umean            	UstDev           	pmin             	at location      	pmax             	at location      	pmean            	pstDev           
2.5e-05          6.3553767021e-29 ( 9.8333333335e-02 2.7600000000e-01 -6.5052130349e-19 ) 7.0208153460e+00 ( 1.4900000000e-01 5.5000000000e-02 0.0000000000e+00 ) 8.0259513338e-02 6.9971666064e-01 -2.1740256959e+05 ( 1.4900000000e-01 5.9000000000e-02 0.0000000000e+00 ) 1.0000000000e+07 ( 9.1666666665e-02 1.2500000000e-03 1.0045281152e-20 ) 9.8793900031e+06 1.0527508421e+06 
