# Time           	U.airmin         	at location      	U.airmax         	at location      	U.airmean        	U.airstDev       	pmin             	at location      	pmax             	at location      	pmean            	pstDev           	T.airmin         	at location      	T.airmax         	at location      	T.airmean        	T.airstDev       	T.watermin       	at location      	T.watermax       	at location      	T.watermean      	T.waterstDev     
0.25             1.9649890021e-02 ( 3.0000000000e-03 7.6666666665e-01 5.0000000000e-02 ) 5.2164622386e-01 ( 9.0000000000e-03 7.1333333335e-01 5.0000000000e-02 ) 2.4009195049e-01 1.1251943297e-01 7.6881207875e-02 ( 3.0000000000e-03 9.9333333335e-01 5.0000000000e-02 ) 6.8764780846e+03 ( 1.3500000000e-01 6.6666666650e-03 5.0000000000e-02 ) 2.5313868175e+03 2.3358942819e+03 3.0003284518e+02 ( 3.0000000000e-03 9.9333333335e-01 5.0000000000e-02 ) 3.5000023408e+02 ( 3.0000000000e-03 1.1333333335e-01 5.0000000000e-02 ) 3.3761921358e+02 2.1304968068e+01 3.0003276554e+02 ( 3.0000000000e-03 9.9333333335e-01 5.0000000000e-02 ) 3.5000001125e+02 ( 3.3000000000e-02 7.0000000000e-01 5.0000000000e-02 ) 3.3764648977e+02 2.1292586652e+01 
