# Time           	Umin             	at location      	Umax             	at location      	Umean            	UstDev           	kmin             	at location      	kmax             	at location      	kmean            	kstDev           	nutmin           	at location      	nutmax           	at location      	nutmean          	nutstDev         	pmin             	at location      	pmax             	at location      	pmean            	pstDev           	Tmin             	at location      	Tmax             	at location      	Tmean            	TstDev           
1                6.1881916696e-01 ( 4.9600000000e+03 9.7500000000e+02 2.3076923075e+01 ) 1.0644787846e+00 ( 4.9600000000e+03 -1.4750000000e+03 5.7692307690e+02 ) 9.3528644665e-01 5.7792086282e-02 6.2327874449e-04 ( 4.8800000000e+03 -1.4750000000e+03 6.9230769230e+01 ) 7.6089016752e-03 ( 4.9600000000e+03 -2.5000000000e+01 2.3076923075e+01 ) 1.0841145907e-03 3.8122386305e-04 2.2040055797e-04 ( 4.8800000000e+03 -1.4750000000e+03 6.9230769230e+01 ) 5.4929585863e-01 ( 4.9600000000e+03 1.4750000000e+03 2.3076923075e+01 ) 1.1305601733e-02 4.2040899772e-02 2.8236886359e+02 ( -2.9600000000e+03 -7.2500000000e+02 5.7692307690e+02 ) 7.2906500238e+03 ( 4.8800000000e+03 1.4750000000e+03 2.3076923075e+01 ) 3.7508197362e+03 2.1851002284e+03 2.8314992391e+02 ( 4.9600000000e+03 -2.5000000000e+01 2.3076923075e+01 ) 2.8315057083e+02 ( 4.8800000000e+03 1.4250000000e+03 2.5384615385e+02 ) 2.8315004590e+02 9.9538840116e-05 
2                6.1671520940e-01 ( 4.8800000000e+03 -1.3750000000e+03 2.3076923075e+01 ) 1.0739856162e+00 ( 4.9600000000e+03 1.3250000000e+03 5.7692307690e+02 ) 9.3549167965e-01 6.3595686023e-02 2.0428282018e-04 ( 4.8000000000e+03 -1.4750000000e+03 6.9230769230e+01 ) 8.7728321941e-03 ( 4.9600000000e+03 -2.5000000000e+01 2.3076923075e+01 ) 4.4424955567e-04 5.3269560810e-04 7.0826473814e-05 ( 4.8000000000e+03 -1.4750000000e+03 6.9230769230e+01 ) 4.6246160687e-01 ( -9.6000000000e+02 1.4750000000e+03 2.3076923075e+01 ) 1.0544398133e-02 4.0556781704e-02 2.8236662855e+02 ( -8.0000000000e+01 -1.4750000000e+03 5.7692307690e+02 ) 7.2904053076e+03 ( 4.8800000000e+03 -1.4750000000e+03 2.3076923075e+01 ) 3.7506774769e+03 2.1851029245e+03 2.8314992639e+02 ( 4.9600000000e+03 -2.5000000000e+01 2.3076923075e+01 ) 2.8315071907e+02 ( 4.7200000000e+03 -1.4250000000e+03 2.5384615385e+02 ) 2.8315009292e+02 1.5838547505e-04 
3                6.1704658073e-01 ( 4.9600000000e+03 1.4750000000e+03 2.3076923075e+01 ) 1.0702001449e+00 ( 4.7200000000e+03 -1.4750000000e+03 5.7692307690e+02 ) 9.3568267448e-01 6.9672746707e-02 6.6442572839e-05 ( 4.8000000000e+03 1.4750000000e+03 6.9230769230e+01 ) 9.0951378826e-03 ( 4.9600000000e+03 2.5000000000e+01 2.3076923075e+01 ) 2.4670630003e-04 5.8480677048e-04 2.3152111199e-05 ( 4.7200000000e+03 1.4750000000e+03 1.1538461540e+02 ) 4.5115676769e-01 ( 4.9600000000e+03 -1.4250000000e+03 2.3076923075e+01 ) 1.0075419656e-02 3.9353456170e-02 2.8236177060e+02 ( 4.9600000000e+03 7.5000000000e+01 5.7692307690e+02 ) 7.2903802500e+03 ( -2.9600000000e+03 1.4750000000e+03 2.3076923075e+01 ) 3.7506684164e+03 2.1850995608e+03 2.8314994282e+02 ( 4.9600000000e+03 -2.5000000000e+01 2.3076923075e+01 ) 2.8315075495e+02 ( 4.5600000000e+03 1.4250000000e+03 2.5384615385e+02 ) 2.8315013890e+02 1.9443754342e-04 
4                6.1687761537e-01 ( 4.9600000000e+03 -1.3250000000e+03 2.3076923075e+01 ) 1.0693509615e+00 ( 4.9600000000e+03 1.4250000000e+03 5.7692307690e+02 ) 9.3586839641e-01 7.6224170786e-02 2.1328301542e-05 ( 4.7200000000e+03 1.4750000000e+03 1.1538461540e+02 ) 9.3067857459e-03 ( 4.9600000000e+03 -1.4750000000e+03 2.3076923075e+01 ) 2.1001230750e-04 6.9286731455e-04 7.4052275110e-06 ( 4.6400000000e+03 1.4750000000e+03 1.1538461540e+02 ) 4.5521952501e-01 ( 4.9600000000e+03 -1.4750000000e+03 2.3076923075e+01 ) 1.1145917043e-02 4.1585567189e-02 2.8236516044e+02 ( 4.9600000000e+03 2.5000000000e+01 5.7692307690e+02 ) 7.2903819583e+03 ( 7.2000000000e+02 2.7500000000e+02 2.3076923075e+01 ) 3.7506715860e+03 2.1850989438e+03 2.8314995212e+02 ( 4.9600000000e+03 -2.5000000000e+01 2.3076923075e+01 ) 2.8315075804e+02 ( 4.4800000000e+03 1.4250000000e+03 2.5384615385e+02 ) 2.8315018487e+02 2.1687867094e-04 
5                6.1761678629e-01 ( 4.9600000000e+03 2.5000000000e+01 2.3076923075e+01 ) 1.0691064196e+00 ( 4.9600000000e+03 1.4750000000e+03 5.7692307690e+02 ) 9.3607878093e-01 8.2858547448e-02 6.7293453841e-06 ( 4.5600000000e+03 1.4750000000e+03 1.1538461540e+02 ) 9.3946654075e-03 ( 4.9600000000e+03 -1.4750000000e+03 2.3076923075e+01 ) 2.4576614118e-04 9.6848925546e-04 2.3630074911e-06 ( 4.5600000000e+03 1.4750000000e+03 1.1538461540e+02 ) 2.7578407234e+00 ( 4.9600000000e+03 1.4750000000e+03 5.7692307690e+02 ) 2.3061488902e-02 1.4133068160e-01 2.8236745180e+02 ( -2.9600000000e+03 -7.2500000000e+02 5.7692307690e+02 ) 7.2903827972e+03 ( 7.2000000000e+02 2.2500000000e+02 2.3076923075e+01 ) 3.7506733575e+03 2.1850986066e+03 2.8314996242e+02 ( -2.9600000000e+03 -6.7500000000e+02 5.7692307690e+02 ) 2.8315076516e+02 ( 4.6400000000e+03 1.4250000000e+03 2.5384615385e+02 ) 2.8315022997e+02 2.2941529596e-04 
6                6.1994970735e-01 ( 4.9600000000e+03 4.2500000000e+02 2.3076923075e+01 ) 1.0686582508e+00 ( 4.9600000000e+03 1.4250000000e+03 5.7692307690e+02 ) 9.3629217671e-01 8.9089212813e-02 2.1004961506e-06 ( -2.9600000000e+03 1.4750000000e+03 5.7692307690e+02 ) 1.0268978770e-02 ( 4.9600000000e+03 1.4750000000e+03 5.7692307690e+02 ) 3.1238194450e-04 1.2469288136e-03 7.5126324492e-07 ( -2.4000000000e+03 -4.2500000000e+02 5.7692307690e+02 ) 8.7100477709e+00 ( 4.9600000000e+03 1.4750000000e+03 5.7692307690e+02 ) 6.0350430187e-02 4.2873762158e-01 2.8236747271e+02 ( -2.9600000000e+03 -7.2500000000e+02 5.7692307690e+02 ) 7.2903811605e+03 ( -4.0000000000e+02 1.4750000000e+03 2.3076923075e+01 ) 3.7506726016e+03 2.1850982392e+03 2.8314996090e+02 ( -2.9600000000e+03 -6.7500000000e+02 5.7692307690e+02 ) 2.8315077779e+02 ( 4.7200000000e+03 1.4250000000e+03 2.5384615385e+02 ) 2.8315027369e+02 2.3433990254e-04 
7                6.2010051586e-01 ( 4.8800000000e+03 -1.4250000000e+03 2.3076923075e+01 ) 1.0679774105e+00 ( 4.9600000000e+03 -1.4750000000e+03 5.7692307690e+02 ) 9.3649009372e-01 9.4966014475e-02 6.5169722994e-07 ( -2.6400000000e+03 -4.2500000000e+02 5.7692307690e+02 ) 1.0731422171e-02 ( 4.9600000000e+03 -1.4750000000e+03 6.9230769230e+01 ) 3.9628580599e-04 1.5085054853e-03 2.3679669326e-07 ( -2.5600000000e+03 -3.7500000000e+02 5.7692307690e+02 ) 1.4431145186e+01 ( 4.9600000000e+03 -1.4750000000e+03 5.7692307690e+02 ) 1.2009136619e-01 7.6743264502e-01 2.8236749526e+02 ( -2.9600000000e+03 -7.2500000000e+02 5.7692307690e+02 ) 7.2903803977e+03 ( -1.6000000000e+03 1.2250000000e+03 2.3076923075e+01 ) 3.7506716969e+03 2.1850978317e+03 2.8314996223e+02 ( -2.9600000000e+03 -4.2500000000e+02 5.7692307690e+02 ) 2.8315080521e+02 ( 4.8000000000e+03 1.4250000000e+03 2.5384615385e+02 ) 2.8315031531e+02 2.3348837991e-04 
8                6.1928965435e-01 ( 2.5600000000e+03 5.7500000000e+02 2.3076923075e+01 ) 1.0675116796e+00 ( 4.9600000000e+03 -1.4750000000e+03 5.7692307690e+02 ) 9.3667145035e-01 1.0052600609e-01 2.0233482856e-07 ( -2.8000000000e+03 -4.2500000000e+02 5.7692307690e+02 ) 1.1026978536e-02 ( 4.9600000000e+03 -1.4750000000e+03 6.9230769230e+01 ) 4.8986601895e-04 1.7467114624e-03 7.3864416402e-08 ( 4.1600000000e+03 1.4750000000e+03 1.1538461540e+02 ) 1.4431145499e+01 ( 4.9600000000e+03 -1.4750000000e+03 5.7692307690e+02 ) 1.8749787414e-01 1.0294644373e+00 2.8236754786e+02 ( -2.9600000000e+03 -7.2500000000e+02 5.7692307690e+02 ) 7.2903801940e+03 ( -2.9600000000e+03 1.4750000000e+03 2.3076923075e+01 ) 3.7506709616e+03 2.1850974393e+03 2.8314996651e+02 ( -2.9600000000e+03 -4.2500000000e+02 5.7692307690e+02 ) 2.8315084585e+02 ( 4.8000000000e+03 1.4250000000e+03 2.0769230770e+02 ) 2.8315035399e+02 2.2876355006e-04 
9                6.1638695711e-01 ( 2.0800000000e+03 5.7500000000e+02 2.3076923075e+01 ) 1.0672891399e+00 ( 4.9600000000e+03 -1.4750000000e+03 5.7692307690e+02 ) 9.3683587920e-01 1.0573677878e-01 6.2839782075e-08 ( -2.8800000000e+03 -4.2500000000e+02 5.7692307690e+02 ) 1.1159746378e-02 ( 4.9600000000e+03 -1.4750000000e+03 6.9230769230e+01 ) 5.8723658618e-04 1.9617485255e-03 2.2581140511e-08 ( 2.3200000000e+03 1.4750000000e+03 1.1538461540e+02 ) 1.4431145489e+01 ( 4.8800000000e+03 -1.4750000000e+03 5.7692307690e+02 ) 2.5664105583e-01 1.2587920409e+00 2.8236795043e+02 ( -2.9600000000e+03 -5.2500000000e+02 5.7692307690e+02 ) 7.2903795963e+03 ( -2.9600000000e+03 1.4750000000e+03 2.3076923075e+01 ) 3.7506704132e+03 2.1850970727e+03 2.8314997746e+02 ( -2.9600000000e+03 -4.2500000000e+02 5.7692307690e+02 ) 2.8315087946e+02 ( 4.8000000000e+03 1.4250000000e+03 2.0769230770e+02 ) 2.8315038906e+02 2.2186546981e-04 
10               6.1335339557e-01 ( 1.5200000000e+03 6.2500000000e+02 2.3076923075e+01 ) 1.0672167921e+00 ( 4.9600000000e+03 -1.4750000000e+03 5.7692307690e+02 ) 9.3697929184e-01 1.1051449826e-01 1.9504383359e-08 ( -2.9600000000e+03 -4.2500000000e+02 5.7692307690e+02 ) 1.1221316262e-02 ( 4.9600000000e+03 -1.4750000000e+03 6.9230769230e+01 ) 6.8767828033e-04 2.1588334721e-03 6.6523218566e-09 ( 1.6000000000e+03 1.4750000000e+03 1.1538461540e+02 ) 1.4431146082e+01 ( 4.8800000000e+03 -1.4750000000e+03 5.7692307690e+02 ) 3.2686394645e-01 1.4536999653e+00 2.8236852764e+02 ( -2.9600000000e+03 -6.2500000000e+02 5.7692307690e+02 ) 7.2903789844e+03 ( -2.9600000000e+03 1.4750000000e+03 2.3076923075e+01 ) 3.7506700851e+03 2.1850967430e+03 2.8314999126e+02 ( -2.9600000000e+03 -5.7500000000e+02 5.7692307690e+02 ) 2.8315091255e+02 ( 4.8000000000e+03 1.4250000000e+03 2.0769230770e+02 ) 2.8315041950e+02 2.1505180232e-04 
11               6.1043122757e-01 ( 9.6000000000e+02 6.2500000000e+02 2.3076923075e+01 ) 1.0672153990e+00 ( 4.9600000000e+03 -1.4750000000e+03 5.7692307690e+02 ) 9.3709705396e-01 1.1472470799e-01 6.0414776184e-09 ( -2.9600000000e+03 -4.2500000000e+02 5.7692307690e+02 ) 1.1250914264e-02 ( 4.9600000000e+03 -1.4750000000e+03 6.9230769230e+01 ) 7.8921124221e-04 2.3391090200e-03 1.8522682843e-09 ( 1.2800000000e+03 1.4750000000e+03 1.1538461540e+02 ) 1.4431146463e+01 ( 4.8000000000e+03 -1.4750000000e+03 5.7692307690e+02 ) 3.9875446580e-01 1.6306296744e+00 2.8236923080e+02 ( -2.9600000000e+03 -5.2500000000e+02 5.7692307690e+02 ) 7.2903782115e+03 ( -2.9600000000e+03 1.4750000000e+03 2.3076923075e+01 ) 3.7506700783e+03 2.1850964590e+03 2.8315000620e+02 ( -2.7200000000e+03 -5.2500000000e+02 2.3076923075e+01 ) 2.8315094835e+02 ( 4.8000000000e+03 1.4250000000e+03 2.0769230770e+02 ) 2.8315044476e+02 2.0997228811e-04 
12               6.0707432742e-01 ( 4.8000000000e+02 1.7500000000e+02 2.3076923075e+01 ) 1.0672328256e+00 ( 4.9600000000e+03 -1.4750000000e+03 5.7692307690e+02 ) 9.3719321400e-01 1.1825225432e-01 1.8635844428e-09 ( -2.8800000000e+03 -4.2500000000e+02 5.7692307690e+02 ) 1.1265562436e-02 ( 4.9600000000e+03 -1.4750000000e+03 6.9230769230e+01 ) 8.9020977040e-04 2.5047455328e-03 4.4256208329e-10 ( 3.8400000000e+03 -1.4750000000e+03 1.6153846155e+02 ) 1.4431146526e+01 ( 4.7200000000e+03 -1.4750000000e+03 5.7692307690e+02 ) 4.7089304909e-01 1.7919253959e+00 2.8236992842e+02 ( -2.9600000000e+03 -6.2500000000e+02 5.7692307690e+02 ) 7.2903774371e+03 ( -2.9600000000e+03 1.4750000000e+03 2.3076923075e+01 ) 3.7506704910e+03 2.1850962279e+03 2.8315001772e+02 ( -2.7200000000e+03 -5.2500000000e+02 2.3076923075e+01 ) 2.8315098599e+02 ( 4.8000000000e+03 1.4250000000e+03 2.0769230770e+02 ) 2.8315046469e+02 2.0750284566e-04 
13               6.0370839413e-01 ( -8.0000000000e+01 7.5000000000e+01 2.3076923075e+01 ) 1.0672610899e+00 ( 4.9600000000e+03 -1.4250000000e+03 5.7692307690e+02 ) 9.3726603112e-01 1.2101882364e-01 5.7139130557e-10 ( -2.8800000000e+03 -4.2500000000e+02 5.7692307690e+02 ) 1.1272687069e-02 ( 4.9600000000e+03 -1.4750000000e+03 6.9230769230e+01 ) 9.9025989904e-04 2.6573496906e-03 2.7880062447e-11 ( 3.8400000000e+03 -1.4750000000e+03 1.6153846155e+02 ) 1.4431147115e+01 ( 4.6400000000e+03 -1.4750000000e+03 5.7692307690e+02 ) 5.4222985230e-01 1.9374134460e+00 2.8237050079e+02 ( -2.9600000000e+03 -1.4750000000e+03 5.7692307690e+02 ) 7.2903773327e+03 ( 4.2400000000e+03 -1.4750000000e+03 2.3076923075e+01 ) 3.7506712248e+03 2.1850960535e+03 2.8315002816e+02 ( -2.7200000000e+03 -5.2500000000e+02 2.3076923075e+01 ) 2.8315102548e+02 ( 4.8000000000e+03 1.4250000000e+03 2.0769230770e+02 ) 2.8315047952e+02 2.0769208236e-04 
14               6.0050719051e-01 ( -5.6000000000e+02 2.5000000000e+01 2.3076923075e+01 ) 1.0672729032e+00 ( 4.9600000000e+03 -1.4250000000e+03 5.7692307690e+02 ) 9.3731842133e-01 1.2301352719e-01 1.7402237477e-10 ( -2.8800000000e+03 -4.2500000000e+02 5.7692307690e+02 ) 1.1279230849e-02 ( 4.8800000000e+03 -1.4750000000e+03 6.9230769230e+01 ) 1.0882018538e-03 2.7984493449e-03 2.2351237365e-12 ( 3.7600000000e+03 -1.4750000000e+03 2.0769230770e+02 ) 1.4431147802e+01 ( 4.5600000000e+03 -1.4750000000e+03 5.7692307690e+02 ) 6.1239401659e-01 2.0729660573e+00 2.8237081278e+02 ( -2.9600000000e+03 -1.4750000000e+03 5.7692307690e+02 ) 7.2903790452e+03 ( 4.1600000000e+03 -1.4250000000e+03 2.3076923075e+01 ) 3.7506721922e+03 2.1850959327e+03 2.8315003613e+02 ( -2.7200000000e+03 -5.2500000000e+02 2.3076923075e+01 ) 2.8315106794e+02 ( 4.8800000000e+03 -1.4250000000e+03 6.9230769230e+01 ) 2.8315048978e+02 2.1000844839e-04 
15               5.9717637348e-01 ( -1.2800000000e+03 5.2500000000e+02 2.3076923075e+01 ) 1.0672695349e+00 ( 4.9600000000e+03 1.4250000000e+03 5.7692307690e+02 ) 9.3735317338e-01 1.2428478515e-01 5.2682359251e-11 ( -2.9600000000e+03 -3.7500000000e+02 5.7692307690e+02 ) 1.1286861556e-02 ( 4.8800000000e+03 -1.4750000000e+03 6.9230769230e+01 ) 1.1828425880e-03 2.9289891649e-03 1.4959088807e-13 ( 3.7600000000e+03 -1.4750000000e+03 1.6153846155e+02 ) 1.4431148538e+01 ( 4.4800000000e+03 -1.4750000000e+03 5.7692307690e+02 ) 6.8068890901e-01 2.1998601133e+00 2.8237113509e+02 ( -2.9600000000e+03 -1.4750000000e+03 5.7692307690e+02 ) 7.2903806756e+03 ( 4.0800000000e+03 -1.2500000000e+02 2.3076923075e+01 ) 3.7506732657e+03 2.1850958596e+03 2.8315004077e+02 ( -2.7200000000e+03 -5.2500000000e+02 2.3076923075e+01 ) 2.8315112731e+02 ( 4.8800000000e+03 -1.4250000000e+03 6.9230769230e+01 ) 2.8315049615e+02 2.1381712666e-04 
16               5.9361090002e-01 ( -1.8400000000e+03 5.2500000000e+02 2.3076923075e+01 ) 1.0672584440e+00 ( 4.9600000000e+03 1.4250000000e+03 5.7692307690e+02 ) 9.3736976349e-01 1.2491493335e-01 1.5882615054e-11 ( -2.9600000000e+03 -3.7500000000e+02 5.7692307690e+02 ) 1.1290475577e-02 ( 4.8800000000e+03 -1.4750000000e+03 6.9230769230e+01 ) 1.2732355017e-03 3.0498350494e-03 1.4181539629e-14 ( 3.6800000000e+03 -1.4750000000e+03 1.6153846155e+02 ) 1.4431149331e+01 ( 4.8000000000e+03 -1.4750000000e+03 5.3076923075e+02 ) 7.4660668422e-01 2.3196483736e+00 2.8237132422e+02 ( -2.9600000000e+03 -1.4750000000e+03 5.7692307690e+02 ) 7.2903821284e+03 ( 4.0000000000e+03 -1.2500000000e+02 2.3076923075e+01 ) 3.7506742992e+03 2.1850958230e+03 2.8315004209e+02 ( -2.7200000000e+03 -5.2500000000e+02 2.3076923075e+01 ) 2.8315118691e+02 ( 4.8800000000e+03 -1.4250000000e+03 6.9230769230e+01 ) 2.8315049947e+02 2.1863609310e-04 
17               5.8993006934e-01 ( -2.4800000000e+03 5.2500000000e+02 2.3076923075e+01 ) 1.0672441647e+00 ( 4.9600000000e+03 1.4250000000e+03 5.7692307690e+02 ) 9.3737955603e-01 1.2504110409e-01 4.7764715086e-12 ( -2.9600000000e+03 -3.7500000000e+02 5.7692307690e+02 ) 1.1292245911e-02 ( 4.8800000000e+03 -1.4750000000e+03 6.9230769230e+01 ) 1.3597792306e-03 3.1610901602e-03 9.1030254445e-16 ( 3.6000000000e+03 -1.4750000000e+03 3.0000000000e+02 ) 1.4431150154e+01 ( 4.7200000000e+03 -1.4750000000e+03 5.3076923075e+02 ) 8.1038614407e-01 2.4309942215e+00 2.8237143133e+02 ( -2.9600000000e+03 -1.4750000000e+03 5.7692307690e+02 ) 7.2903835979e+03 ( 3.9200000000e+03 -1.2500000000e+02 2.3076923075e+01 ) 3.7506754105e+03 2.1850958203e+03 2.8315003788e+02 ( -1.6800000000e+03 -4.2500000000e+02 2.3076923075e+01 ) 2.8315124716e+02 ( 4.8800000000e+03 -1.4250000000e+03 6.9230769230e+01 ) 2.8315050011e+02 2.2414967436e-04 
18               5.8477591551e-01 ( -2.9600000000e+03 9.2500000000e+02 2.3076923075e+01 ) 1.0672300552e+00 ( 4.9600000000e+03 1.4250000000e+03 5.7692307690e+02 ) 9.3737967328e-01 1.2474615721e-01 1.4345620452e-12 ( -2.9600000000e+03 -3.7500000000e+02 5.7692307690e+02 ) 1.1293104906e-02 ( 4.8800000000e+03 -1.4750000000e+03 6.9230769230e+01 ) 1.4418091415e-03 3.2631018959e-03 6.8427008528e-17 ( 3.5200000000e+03 1.4750000000e+03 4.8461538460e+02 ) 1.4431151036e+01 ( 4.6400000000e+03 -1.4750000000e+03 5.3076923075e+02 ) 8.7059185881e-01 2.5331291866e+00 2.8237150610e+02 ( -2.9600000000e+03 -1.4750000000e+03 5.7692307690e+02 ) 7.2903849250e+03 ( 3.8400000000e+03 1.4750000000e+03 2.3076923075e+01 ) 3.7506763813e+03 2.1850958400e+03 2.8315003040e+02 ( -1.6000000000e+03 -4.2500000000e+02 2.3076923075e+01 ) 2.8315130801e+02 ( 4.8800000000e+03 -1.4250000000e+03 6.9230769230e+01 ) 2.8315049917e+02 2.3030387141e-04 
19               5.8439214757e-01 ( -2.9600000000e+03 1.2750000000e+03 2.3076923075e+01 ) 1.0672168262e+00 ( 4.9600000000e+03 1.4250000000e+03 5.7692307690e+02 ) 9.3737308449e-01 1.2412615488e-01 4.3057989902e-13 ( -2.9600000000e+03 -3.7500000000e+02 5.7692307690e+02 ) 1.1294163619e-02 ( 4.8800000000e+03 1.4250000000e+03 6.9230769230e+01 ) 1.5192872866e-03 3.3576595954e-03 3.7340339951e-18 ( 3.5200000000e+03 -1.4750000000e+03 3.0000000000e+02 ) 1.4431151988e+01 ( 4.5600000000e+03 -1.4750000000e+03 5.3076923075e+02 ) 9.2753938563e-01 2.6297193202e+00 2.8237174547e+02 ( -2.9600000000e+03 -1.4750000000e+03 5.7692307690e+02 ) 7.2903859916e+03 ( 3.7600000000e+03 1.4750000000e+03 2.3076923075e+01 ) 3.7506770988e+03 2.1850958603e+03 2.8315002219e+02 ( -1.6000000000e+03 -4.2500000000e+02 2.3076923075e+01 ) 2.8315136934e+02 ( 4.8800000000e+03 -1.4250000000e+03 6.9230769230e+01 ) 2.8315049769e+02 2.3723702223e-04 
20               5.8347974256e-01 ( -2.9600000000e+03 1.3750000000e+03 2.3076923075e+01 ) 1.0686123439e+00 ( -2.9600000000e+03 -1.4750000000e+03 5.7692307690e+02 ) 9.3736415770e-01 1.2334837748e-01 1.2920029821e-13 ( -2.9600000000e+03 -3.7500000000e+02 5.7692307690e+02 ) 1.1295233920e-02 ( 4.8800000000e+03 1.4250000000e+03 6.9230769230e+01 ) 1.5968488997e-03 3.4445271317e-03 2.6836075306e-19 ( 3.5200000000e+03 1.4750000000e+03 2.5384615385e+02 ) 1.4431152991e+01 ( 4.4800000000e+03 -1.4750000000e+03 5.3076923075e+02 ) 9.8424383590e-01 2.7193019804e+00 2.8237176944e+02 ( -2.9600000000e+03 -1.4750000000e+03 5.7692307690e+02 ) 7.2903868437e+03 ( 3.7600000000e+03 -1.4750000000e+03 2.3076923075e+01 ) 3.7506776577e+03 2.1850958897e+03 2.8315001247e+02 ( -1.3600000000e+03 -4.2500000000e+02 2.3076923075e+01 ) 2.8315143118e+02 ( 4.8800000000e+03 -1.4250000000e+03 6.9230769230e+01 ) 2.8315049530e+02 2.4496627075e-04 
21               5.8537858318e-01 ( -2.9600000000e+03 1.4750000000e+03 2.3076923075e+01 ) 1.0692266223e+00 ( -2.9600000000e+03 -1.4750000000e+03 5.7692307690e+02 ) 9.3735156915e-01 1.2242749225e-01 3.8763244217e-14 ( -2.9600000000e+03 -3.7500000000e+02 5.7692307690e+02 ) 1.1296026500e-02 ( 4.8800000000e+03 1.3750000000e+03 6.9230769230e+01 ) 1.6695024004e-03 3.5260133512e-03 2.0563863435e-20 ( 3.5200000000e+03 1.4750000000e+03 2.0769230770e+02 ) 1.4431154033e+01 ( 4.4000000000e+03 -1.4750000000e+03 5.3076923075e+02 ) 1.0364309840e+00 2.8045393264e+00 2.8237178848e+02 ( -2.9600000000e+03 -1.4750000000e+03 5.7692307690e+02 ) 7.2903875162e+03 ( 3.6800000000e+03 -1.4750000000e+03 2.3076923075e+01 ) 3.7506780883e+03 2.1850959211e+03 2.8315000169e+02 ( -1.3600000000e+03 -4.2500000000e+02 2.3076923075e+01 ) 2.8315149337e+02 ( 4.8800000000e+03 -1.4250000000e+03 6.9230769230e+01 ) 2.8315049269e+02 2.5357628626e-04 
22               5.8787350906e-01 ( -2.9600000000e+03 1.4750000000e+03 2.3076923075e+01 ) 1.0692257827e+00 ( -2.9600000000e+03 -1.4750000000e+03 5.7692307690e+02 ) 9.3733691120e-01 1.2142209195e-01 1.1629339356e-14 ( -2.9600000000e+03 -3.7500000000e+02 5.7692307690e+02 ) 1.1300296761e-02 ( 4.6400000000e+03 -1.4750000000e+03 1.1538461540e+02 ) 1.7432193914e-03 3.6007960791e-03 1.8880669429e-21 ( 3.4400000000e+03 -1.4750000000e+03 2.5384615385e+02 ) 1.4431155112e+01 ( 4.4000000000e+03 -1.4750000000e+03 5.3076923075e+02 ) 1.0887341881e+00 2.8828672749e+00 2.8237179687e+02 ( -2.9600000000e+03 -1.4750000000e+03 5.7692307690e+02 ) 7.2903879507e+03 ( 3.6000000000e+03 -1.4750000000e+03 2.3076923075e+01 ) 3.7506783774e+03 2.1850959520e+03 2.8314999004e+02 ( -1.3600000000e+03 -4.2500000000e+02 2.3076923075e+01 ) 2.8315155592e+02 ( 4.8800000000e+03 -1.4250000000e+03 6.9230769230e+01 ) 2.8315049008e+02 2.6311626974e-04 
23               5.9176724665e-01 ( -2.9600000000e+03 1.4750000000e+03 2.3076923075e+01 ) 1.0687727750e+00 ( -2.9600000000e+03 -1.4750000000e+03 5.7692307690e+02 ) 9.3732187644e-01 1.2036760606e-01 3.4888431637e-15 ( -2.9600000000e+03 -3.7500000000e+02 5.7692307690e+02 ) 1.1302962888e-02 ( 4.6400000000e+03 -1.4750000000e+03 1.1538461540e+02 ) 1.8126656914e-03 3.6718425576e-03 1.7652774065e-22 ( 3.4400000000e+03 -1.4750000000e+03 2.0769230770e+02 ) 1.4431156220e+01 ( 4.3200000000e+03 -1.4750000000e+03 5.3076923075e+02 ) 1.1388616901e+00 2.9592221292e+00 2.8237179700e+02 ( -2.9600000000e+03 -1.4750000000e+03 5.7692307690e+02 ) 7.2903881882e+03 ( 3.5200000000e+03 -1.4750000000e+03 2.3076923075e+01 ) 3.7506785628e+03 2.1850959801e+03 2.8314997754e+02 ( -1.3600000000e+03 -4.2500000000e+02 2.3076923075e+01 ) 2.8315161882e+02 ( 4.8800000000e+03 -1.4250000000e+03 6.9230769230e+01 ) 2.8315048762e+02 2.7357846316e-04 
24               5.9659386302e-01 ( -2.9600000000e+03 1.4750000000e+03 2.3076923075e+01 ) 1.0680509697e+00 ( -2.9600000000e+03 -1.4750000000e+03 5.7692307690e+02 ) 9.3730606718e-01 1.1929162613e-01 1.0466575152e-15 ( -2.9600000000e+03 -3.7500000000e+02 5.7692307690e+02 ) 1.1304535694e-02 ( 4.6400000000e+03 -1.4750000000e+03 1.1538461540e+02 ) 1.8772665530e-03 3.7351086016e-03 1.5603489722e-23 ( 3.3600000000e+03 -1.4750000000e+03 3.0000000000e+02 ) 1.4431157350e+01 ( 4.2400000000e+03 -1.4750000000e+03 5.3076923075e+02 ) 1.1837575395e+00 3.0283286886e+00 2.8237179164e+02 ( -2.9600000000e+03 -1.4750000000e+03 5.7692307690e+02 ) 7.2903882640e+03 ( 3.5200000000e+03 -1.4750000000e+03 2.3076923075e+01 ) 3.7506786590e+03 2.1850960047e+03 2.8314996435e+02 ( -1.3600000000e+03 -4.2500000000e+02 2.3076923075e+01 ) 2.8315168198e+02 ( 4.8800000000e+03 -1.4250000000e+03 6.9230769230e+01 ) 2.8315048543e+02 2.8491919535e-04 
25               6.0091567122e-01 ( -2.9600000000e+03 1.4750000000e+03 2.3076923075e+01 ) 1.0671759479e+00 ( 4.9600000000e+03 -1.4750000000e+03 5.7692307690e+02 ) 9.3729006567e-01 1.1821887074e-01 1.0000000000e-15 ( 8.0000000000e+02 -1.4750000000e+03 2.0769230770e+02 ) 1.1305494369e-02 ( 4.6400000000e+03 1.3750000000e+03 1.1538461540e+02 ) 1.9431937329e-03 3.7951310913e-03 1.2016680089e-23 ( 3.3600000000e+03 1.4750000000e+03 2.5384615385e+02 ) 1.4431158493e+01 ( 4.1600000000e+03 -1.4750000000e+03 5.3076923075e+02 ) 1.2327002165e+00 3.0962418717e+00 2.8237174832e+02 ( -2.9600000000e+03 -1.4750000000e+03 5.7692307690e+02 ) 7.2903882718e+03 ( 3.4400000000e+03 -1.4750000000e+03 2.3076923075e+01 ) 3.7506787026e+03 2.1850960261e+03 2.8314995077e+02 ( -1.3600000000e+03 -4.2500000000e+02 2.3076923075e+01 ) 2.8315174534e+02 ( 4.8800000000e+03 -1.4250000000e+03 6.9230769230e+01 ) 2.8315048354e+02 2.9708390832e-04 
26               6.0766397795e-01 ( -2.9600000000e+03 1.4750000000e+03 2.3076923075e+01 ) 1.0671680911e+00 ( 4.9600000000e+03 -1.4750000000e+03 5.7692307690e+02 ) 9.3727521726e-01 1.1715750807e-01 1.0000000000e-15 ( 8.0000000000e+02 -1.4750000000e+03 2.0769230770e+02 ) 1.1306555358e-02 ( 4.6400000000e+03 1.3750000000e+03 1.1538461540e+02 ) 2.0024749530e-03 3.8510895686e-03 1.2619998057e-23 ( 3.3600000000e+03 -1.4250000000e+03 3.0000000000e+02 ) 1.4431159648e+01 ( 4.1600000000e+03 -1.4750000000e+03 5.3076923075e+02 ) 1.2750699559e+00 3.1602172319e+00 2.8237173936e+02 ( -2.9600000000e+03 -1.4750000000e+03 5.7692307690e+02 ) 7.2903881877e+03 ( 3.3600000000e+03 -1.4750000000e+03 2.3076923075e+01 ) 3.7506787041e+03 2.1850960436e+03 2.8314993711e+02 ( -1.3600000000e+03 -4.2500000000e+02 2.3076923075e+01 ) 2.8315180890e+02 ( 4.8800000000e+03 -1.4250000000e+03 6.9230769230e+01 ) 2.8315048206e+02 3.0995879016e-04 
27               6.1388099500e-01 ( -2.9600000000e+03 1.4750000000e+03 2.3076923075e+01 ) 1.0671596457e+00 ( 4.9600000000e+03 -1.4750000000e+03 5.7692307690e+02 ) 9.3726015895e-01 1.1612393400e-01 1.0000000000e-15 ( 8.0000000000e+02 -1.4750000000e+03 2.0769230770e+02 ) 1.1307192201e-02 ( 4.6400000000e+03 1.3750000000e+03 1.1538461540e+02 ) 2.0609789556e-03 3.9007263847e-03 1.1732515874e-23 ( 3.3600000000e+03 -1.4250000000e+03 2.5384615385e+02 ) 1.4431160812e+01 ( 4.0800000000e+03 -1.4750000000e+03 5.3076923075e+02 ) 1.3150638465e+00 3.2172902164e+00 2.8237172827e+02 ( -2.9600000000e+03 -1.4750000000e+03 5.7692307690e+02 ) 7.2903880413e+03 ( 3.2800000000e+03 -1.4750000000e+03 2.3076923075e+01 ) 3.7506786580e+03 2.1850960573e+03 2.8314992369e+02 ( -1.3600000000e+03 -4.2500000000e+02 2.3076923075e+01 ) 2.8315187266e+02 ( 4.8800000000e+03 -1.4250000000e+03 6.9230769230e+01 ) 2.8315048100e+02 3.2348943166e-04 
28               6.1870092873e-01 ( -2.9600000000e+03 1.4750000000e+03 2.3076923075e+01 ) 1.0671507279e+00 ( 4.9600000000e+03 -1.4750000000e+03 5.7692307690e+02 ) 9.3724513248e-01 1.1514142560e-01 1.0000000000e-15 ( 8.0000000000e+02 -1.4750000000e+03 2.0769230770e+02 ) 1.1307562206e-02 ( 4.6400000000e+03 1.3250000000e+03 1.1538461540e+02 ) 2.1251941516e-03 3.9478680907e-03 1.1713510020e-23 ( 3.2800000000e+03 -1.4750000000e+03 2.5384615385e+02 ) 1.4431161976e+01 ( 4.0000000000e+03 -1.4750000000e+03 5.3076923075e+02 ) 1.3609756825e+00 3.2743616956e+00 2.8237159576e+02 ( -2.9600000000e+03 -1.4750000000e+03 5.7692307690e+02 ) 7.2903879077e+03 ( 3.2000000000e+03 -1.4750000000e+03 2.3076923075e+01 ) 3.7506786003e+03 2.1850960703e+03 2.8314991078e+02 ( -1.3600000000e+03 -4.2500000000e+02 2.3076923075e+01 ) 2.8315193672e+02 ( 4.8800000000e+03 -1.4250000000e+03 6.9230769230e+01 ) 2.8315048019e+02 3.3763262898e-04 
29               6.2099382376e-01 ( 4.9600000000e+03 1.4750000000e+03 2.3076923075e+01 ) 1.0671414592e+00 ( 4.9600000000e+03 -1.4750000000e+03 5.7692307690e+02 ) 9.3723038240e-01 1.1417454225e-01 1.0000000000e-15 ( 8.0000000000e+02 -1.4750000000e+03 2.0769230770e+02 ) 1.1307783597e-02 ( 4.6400000000e+03 1.3250000000e+03 1.1538461540e+02 ) 2.1894375147e-03 3.9947696642e-03 1.3003054124e-23 ( 3.2800000000e+03 4.7500000000e+02 3.4615384615e+02 ) 1.4431163140e+01 ( 4.0000000000e+03 -1.4750000000e+03 5.3076923075e+02 ) 1.4028317128e+00 3.3285156981e+00 2.8237158682e+02 ( -2.9600000000e+03 -1.4750000000e+03 5.7692307690e+02 ) 7.2903878533e+03 ( 3.0400000000e+03 -1.3750000000e+03 2.3076923075e+01 ) 3.7506785486e+03 2.1850960777e+03 2.8314989850e+02 ( -1.3600000000e+03 -4.2500000000e+02 2.3076923075e+01 ) 2.8315200142e+02 ( 4.8800000000e+03 -1.4250000000e+03 6.9230769230e+01 ) 2.8315047996e+02 3.5226293283e-04 
30               6.2102833094e-01 ( 4.9600000000e+03 1.4750000000e+03 2.3076923075e+01 ) 1.0671319703e+00 ( 4.9600000000e+03 -1.4750000000e+03 5.7692307690e+02 ) 9.3721618724e-01 1.1324673090e-01 1.0000000000e-15 ( 8.0000000000e+02 -1.4750000000e+03 2.0769230770e+02 ) 1.1307876649e-02 ( 4.6400000000e+03 1.3250000000e+03 1.1538461540e+02 ) 2.2477145398e-03 4.0388782542e-03 1.2184437872e-23 ( 3.2800000000e+03 4.2500000000e+02 3.0000000000e+02 ) 1.4431164403e+01 ( 3.9200000000e+03 -1.4750000000e+03 5.3076923075e+02 ) 1.4392450209e+00 3.3756929091e+00 2.8237157239e+02 ( -2.9600000000e+03 -1.4750000000e+03 5.7692307690e+02 ) 7.2903878311e+03 ( 2.9600000000e+03 -1.3250000000e+03 2.3076923075e+01 ) 3.7506784753e+03 2.1850960808e+03 2.8314988688e+02 ( -1.3600000000e+03 -4.2500000000e+02 2.3076923075e+01 ) 2.8315206660e+02 ( 4.8800000000e+03 -1.4250000000e+03 6.9230769230e+01 ) 2.8315048017e+02 3.6737186785e-04 
31               6.2106475220e-01 ( 4.9600000000e+03 1.4750000000e+03 2.3076923075e+01 ) 1.0671224027e+00 ( 4.9600000000e+03 -1.4750000000e+03 5.7692307690e+02 ) 9.3720255476e-01 1.1235550510e-01 1.0000000000e-15 ( 8.0000000000e+02 -1.4750000000e+03 2.0769230770e+02 ) 1.1307897764e-02 ( 4.6400000000e+03 1.3250000000e+03 1.1538461540e+02 ) 2.3091118640e-03 4.0788492786e-03 1.1321573234e-23 ( 3.2800000000e+03 4.2500000000e+02 2.5384615385e+02 ) 1.4431165677e+01 ( 3.8400000000e+03 -1.4750000000e+03 5.3076923075e+02 ) 1.4811767076e+00 3.4217074319e+00 2.8237155722e+02 ( -2.9600000000e+03 -1.4750000000e+03 5.7692307690e+02 ) 7.2903877804e+03 ( 2.9600000000e+03 -1.2750000000e+03 2.3076923075e+01 ) 3.7506783870e+03 2.1850960801e+03 2.8314987580e+02 ( -1.3600000000e+03 -4.2500000000e+02 2.3076923075e+01 ) 2.8315213221e+02 ( 4.8800000000e+03 -1.4250000000e+03 6.9230769230e+01 ) 2.8315048082e+02 3.8290077233e-04 
32               6.2110199249e-01 ( 4.9600000000e+03 1.4750000000e+03 2.3076923075e+01 ) 1.0671128436e+00 ( 4.9600000000e+03 1.4750000000e+03 5.7692307690e+02 ) 9.3718983872e-01 1.1153253838e-01 1.0000000000e-15 ( 8.0000000000e+02 -1.4750000000e+03 2.0769230770e+02 ) 1.1307880941e-02 ( 4.6400000000e+03 1.3250000000e+03 1.1538461540e+02 ) 2.3674456735e-03 4.1165642849e-03 1.1822264333e-23 ( 3.2000000000e+03 1.4750000000e+03 2.5384615385e+02 ) 1.4431166972e+01 ( 3.8400000000e+03 -1.4750000000e+03 5.3076923075e+02 ) 1.5216185208e+00 3.4695024462e+00 2.8237132597e+02 ( -2.9600000000e+03 -1.4750000000e+03 5.7692307690e+02 ) 7.2903876227e+03 ( 2.9600000000e+03 -1.2250000000e+03 2.3076923075e+01 ) 3.7506782774e+03 2.1850960834e+03 2.8314986514e+02 ( -1.3600000000e+03 -4.2500000000e+02 2.3076923075e+01 ) 2.8315219821e+02 ( 4.8800000000e+03 -1.4250000000e+03 6.9230769230e+01 ) 2.8315048151e+02 3.9886633164e-04 