# Wall shear stress
# Time           	patch            	min              	max              
50               	inclinedProlateSpheroid	( -1.2175076336e+00 -5.5928277883e+00 -6.0843987381e+00 )	( 6.9478704934e+00 7.4960680609e+00 5.8598226227e+00 )
