# Wall heat-flux 
# Time           	patch            	min              	max              	integral         
1.0000000000e+00	disk_to_default	-6.4800169412e+01	6.8799112645e+03	8.1759274930e+02
1.0000000000e+00	disk_to_pad2	-6.6869446827e+04	-5.4175594254e+04	-8.6528595328e+02
1.0000000000e+00	disk_to_pad1	-6.6062965111e+04	-5.3246607183e+04	-8.5377146743e+02
2.0000000000e+00	disk_to_default	-1.5904539481e+02	9.4987597484e+03	1.2537692745e+03
2.0000000000e+00	disk_to_pad2	-1.2684561355e+05	-9.6241185476e+04	-1.6319730940e+03
2.0000000000e+00	disk_to_pad1	-1.2594550611e+05	-9.9341209684e+04	-1.6405317446e+03
3.0000000000e+00	disk_to_default	-1.8286597773e+03	1.1925637600e+04	1.5363429716e+03
3.0000000000e+00	disk_to_pad2	-9.3422092387e+04	-7.0723061555e+04	-1.2025006354e+03
3.0000000000e+00	disk_to_pad1	-9.3071342588e+04	-7.2851277139e+04	-1.2109910536e+03
4.0000000000e+00	disk_to_default	-4.0498925972e+03	1.4480914718e+04	1.7877741005e+03
4.0000000000e+00	disk_to_pad2	-8.7917039573e+04	-6.5953658028e+04	-1.1313224276e+03
4.0000000000e+00	disk_to_pad1	-8.7670509924e+04	-6.8214606622e+04	-1.1389551974e+03
5.0000000000e+00	disk_to_default	-5.9978116813e+03	1.6897231719e+04	1.9473092589e+03
5.0000000000e+00	disk_to_pad2	-8.6475985768e+04	-6.4747762304e+04	-1.1137856287e+03
5.0000000000e+00	disk_to_pad1	-8.6460455426e+04	-6.6330809935e+04	-1.1187931794e+03
6.0000000000e+00	disk_to_default	-7.6455376829e+03	1.8827950757e+04	2.0375592738e+03
6.0000000000e+00	disk_to_pad2	-8.5385795350e+04	-6.4182819876e+04	-1.1016291553e+03
6.0000000000e+00	disk_to_pad1	-8.5579312256e+04	-6.4520227484e+04	-1.1025728882e+03
7.0000000000e+00	disk_to_default	-9.3176267954e+03	2.1276821462e+04	2.0842131913e+03
7.0000000000e+00	disk_to_pad2	-8.4543861159e+04	-6.4353039040e+04	-1.0941051862e+03
7.0000000000e+00	disk_to_pad1	-8.5065497414e+04	-6.2958688182e+04	-1.0903169026e+03
8.0000000000e+00	disk_to_default	-1.0494208492e+04	2.2604206426e+04	2.1045859722e+03
8.0000000000e+00	disk_to_pad2	-8.3926571626e+04	-6.4561987978e+04	-1.0881714182e+03
8.0000000000e+00	disk_to_pad1	-8.4830876321e+04	-6.1580956879e+04	-1.0807669797e+03
9.0000000000e+00	disk_to_default	-1.0938982131e+04	2.3008773466e+04	2.1095547782e+03
9.0000000000e+00	disk_to_pad2	-8.3510375432e+04	-6.4303161420e+04	-1.0838572334e+03
9.0000000000e+00	disk_to_pad1	-8.4765534143e+04	-5.9848601384e+04	-1.0731958800e+03
1.0000000000e+01	disk_to_default	-1.1551678870e+04	2.2715967611e+04	2.0971063448e+03
1.0000000000e+01	disk_to_pad2	-8.3332436716e+04	-6.4474173739e+04	-1.0827762806e+03
1.0000000000e+01	disk_to_pad1	-8.4777691961e+04	-5.8039575723e+04	-1.0673114985e+03
1.1000000000e+01	disk_to_default	-1.0785648120e+04	2.2117879976e+04	2.0871749882e+03
1.1000000000e+01	disk_to_pad2	-8.3279453022e+04	-6.4664971318e+04	-1.0825314230e+03
1.1000000000e+01	disk_to_pad1	-8.4706151961e+04	-5.6456188219e+04	-1.0615174956e+03
1.2000000000e+01	disk_to_default	-9.6276097024e+03	2.1454036860e+04	2.0793588435e+03
1.2000000000e+01	disk_to_pad2	-8.3316871340e+04	-6.4875327639e+04	-1.0828166687e+03
1.2000000000e+01	disk_to_pad1	-8.4521943277e+04	-5.5218107725e+04	-1.0558214231e+03
1.3000000000e+01	disk_to_default	-9.8884992580e+03	2.0870327937e+04	2.0724945840e+03
1.3000000000e+01	disk_to_pad2	-8.3380832376e+04	-6.5055252542e+04	-1.0831666131e+03
1.3000000000e+01	disk_to_pad1	-8.4032606314e+04	-5.4348539547e+04	-1.0501675219e+03
1.4000000000e+01	disk_to_default	-1.0445191398e+04	2.0400704553e+04	2.0643713089e+03
1.4000000000e+01	disk_to_pad2	-8.3474593854e+04	-6.5213977434e+04	-1.0838156037e+03
1.4000000000e+01	disk_to_pad1	-8.3236488207e+04	-5.3797614629e+04	-1.0438284929e+03
1.5000000000e+01	disk_to_default	-9.9184883599e+03	2.0091374045e+04	2.0597202239e+03
1.5000000000e+01	disk_to_pad2	-8.3581299211e+04	-6.5376984327e+04	-1.0844959495e+03
1.5000000000e+01	disk_to_pad1	-8.2424463551e+04	-5.3556601650e+04	-1.0362109949e+03
1.6000000000e+01	disk_to_default	-9.1347242992e+03	1.9796813312e+04	2.0537857960e+03
1.6000000000e+01	disk_to_pad2	-8.3680895625e+04	-6.5523752560e+04	-1.0851004734e+03
1.6000000000e+01	disk_to_pad1	-8.1704442951e+04	-5.3515623770e+04	-1.0280537050e+03
1.7000000000e+01	disk_to_default	-8.7535004366e+03	1.9558066781e+04	2.0493299690e+03
1.7000000000e+01	disk_to_pad2	-8.3793995156e+04	-6.5666041969e+04	-1.0859959382e+03
1.7000000000e+01	disk_to_pad1	-8.1292215062e+04	-5.3721097814e+04	-1.0225393467e+03
1.8000000000e+01	disk_to_default	-8.4450864997e+03	1.9361743576e+04	2.0475213850e+03
1.8000000000e+01	disk_to_pad2	-8.3929424822e+04	-6.5782099022e+04	-1.0872298199e+03
1.8000000000e+01	disk_to_pad1	-8.1178542992e+04	-5.3906464600e+04	-1.0176361878e+03
1.9000000000e+01	disk_to_default	-7.8638694091e+03	1.9202501484e+04	2.0471995839e+03
1.9000000000e+01	disk_to_pad2	-8.4082210457e+04	-6.5907647623e+04	-1.0886918696e+03
1.9000000000e+01	disk_to_pad1	-8.0985744450e+04	-5.4140045865e+04	-1.0130672228e+03
2.0000000000e+01	disk_to_default	-6.8402674113e+03	1.9072132755e+04	2.0481729366e+03
2.0000000000e+01	disk_to_pad2	-8.4152945913e+04	-6.6020997345e+04	-1.0900098505e+03
2.0000000000e+01	disk_to_pad1	-8.0758978062e+04	-5.4418541482e+04	-1.0083434428e+03
2.1000000000e+01	disk_to_default	-5.5790262682e+03	1.8953692797e+04	2.0480285491e+03
2.1000000000e+01	disk_to_pad2	-8.4156487114e+04	-6.6087238019e+04	-1.0910380239e+03
2.1000000000e+01	disk_to_pad1	-8.0645734566e+04	-5.4717304639e+04	-1.0044260152e+03
2.2000000000e+01	disk_to_default	-6.0463005635e+03	1.8837512825e+04	2.0469718882e+03
2.2000000000e+01	disk_to_pad2	-8.4134140591e+04	-6.6151967964e+04	-1.0918979347e+03
2.2000000000e+01	disk_to_pad1	-8.0570150907e+04	-5.4988718364e+04	-1.0012315607e+03
2.3000000000e+01	disk_to_default	-6.5906297941e+03	1.8739120742e+04	2.0470945672e+03
2.3000000000e+01	disk_to_pad2	-8.4072402825e+04	-6.6234880956e+04	-1.0927454972e+03
2.3000000000e+01	disk_to_pad1	-8.0499752108e+04	-5.5220705037e+04	-9.9860178816e+02
2.4000000000e+01	disk_to_default	-7.1160786004e+03	1.8635823878e+04	2.0449246913e+03
2.4000000000e+01	disk_to_pad2	-8.3973851563e+04	-6.6323861202e+04	-1.0933467867e+03
2.4000000000e+01	disk_to_pad1	-8.0425130191e+04	-5.5433518142e+04	-9.9666122684e+02
2.5000000000e+01	disk_to_default	-7.4167547781e+03	1.8591260337e+04	2.0454886486e+03
2.5000000000e+01	disk_to_pad2	-8.4059640761e+04	-6.6426024167e+04	-1.0938970263e+03
2.5000000000e+01	disk_to_pad1	-8.0337638088e+04	-5.5650209094e+04	-9.9521299966e+02
2.6000000000e+01	disk_to_default	-7.4047781236e+03	1.8562744808e+04	2.0453789253e+03
2.6000000000e+01	disk_to_pad2	-8.4037338466e+04	-6.6525943072e+04	-1.0940499343e+03
2.6000000000e+01	disk_to_pad1	-8.0195915561e+04	-5.5860696748e+04	-9.9382954556e+02
2.7000000000e+01	disk_to_default	-7.4502249086e+03	1.8549701713e+04	2.0452365201e+03
2.7000000000e+01	disk_to_pad2	-8.3929822550e+04	-6.6623653997e+04	-1.0937446268e+03
2.7000000000e+01	disk_to_pad1	-8.0024430774e+04	-5.6057611693e+04	-9.9256335585e+02
2.8000000000e+01	disk_to_default	-7.4929124144e+03	1.8554808571e+04	2.0452632904e+03
2.8000000000e+01	disk_to_pad2	-8.3756991911e+04	-6.6703905889e+04	-1.0931279144e+03
2.8000000000e+01	disk_to_pad1	-7.9854975255e+04	-5.6235870741e+04	-9.9143469744e+02
2.9000000000e+01	disk_to_default	-7.0648292601e+03	1.8556931453e+04	2.0453068543e+03
2.9000000000e+01	disk_to_pad2	-8.3538704915e+04	-6.6754545591e+04	-1.0921980394e+03
2.9000000000e+01	disk_to_pad1	-7.9687672038e+04	-5.6393283418e+04	-9.9028470792e+02
3.0000000000e+01	disk_to_default	-5.8225684831e+03	1.8558042370e+04	2.0454922140e+03
3.0000000000e+01	disk_to_pad2	-8.3312184519e+04	-6.6781814473e+04	-1.0911569009e+03
3.0000000000e+01	disk_to_pad1	-7.9507370990e+04	-5.6535048599e+04	-9.8917092772e+02
3.1000000000e+01	disk_to_default	-5.0771121952e+03	1.8546394491e+04	2.0459529157e+03
3.1000000000e+01	disk_to_pad2	-8.3101068881e+04	-6.6802409944e+04	-1.0902135481e+03
3.1000000000e+01	disk_to_pad1	-7.9298697239e+04	-5.6670256262e+04	-9.8814177733e+02
3.2000000000e+01	disk_to_default	-4.7176844013e+03	1.8522664543e+04	2.0463125034e+03
3.2000000000e+01	disk_to_pad2	-8.2962320991e+04	-6.6822248483e+04	-1.0895552797e+03
3.2000000000e+01	disk_to_pad1	-7.9060632313e+04	-5.6804682905e+04	-9.8719222419e+02
3.3000000000e+01	disk_to_default	-3.8487078123e+03	1.8485081818e+04	2.0472607839e+03
3.3000000000e+01	disk_to_pad2	-8.2983075860e+04	-6.6830808399e+04	-1.0891561570e+03
3.3000000000e+01	disk_to_pad1	-7.8795713539e+04	-5.6944143865e+04	-9.8637476645e+02
3.4000000000e+01	disk_to_default	-3.9236484643e+03	1.8450280440e+04	2.0486584236e+03
3.4000000000e+01	disk_to_pad2	-8.3018530141e+04	-6.6839573062e+04	-1.0891435545e+03
3.4000000000e+01	disk_to_pad1	-7.8500023724e+04	-5.7090061488e+04	-9.8576014247e+02
3.5000000000e+01	disk_to_default	-4.0816131574e+03	1.8408609084e+04	2.0502585635e+03
3.5000000000e+01	disk_to_pad2	-8.3051188550e+04	-6.6834504198e+04	-1.0892184146e+03
3.5000000000e+01	disk_to_pad1	-7.8168827012e+04	-5.7238710403e+04	-9.8533217972e+02
3.6000000000e+01	disk_to_default	-4.3517933161e+03	1.8365838449e+04	2.0517123475e+03
3.6000000000e+01	disk_to_pad2	-8.3085459720e+04	-6.6825003470e+04	-1.0893528906e+03
3.6000000000e+01	disk_to_pad1	-7.7871564857e+04	-5.7385191333e+04	-9.8505908502e+02
3.7000000000e+01	disk_to_default	-4.6826253051e+03	1.8319787013e+04	2.0531307624e+03
3.7000000000e+01	disk_to_pad2	-8.3123176478e+04	-6.6815357029e+04	-1.0895590154e+03
3.7000000000e+01	disk_to_pad1	-7.7629042008e+04	-5.7526722903e+04	-9.8488242641e+02
3.8000000000e+01	disk_to_default	-5.0106193886e+03	1.8275030296e+04	2.0541712480e+03
3.8000000000e+01	disk_to_pad2	-8.3163482942e+04	-6.6810176473e+04	-1.0898218761e+03
3.8000000000e+01	disk_to_pad1	-7.7350574492e+04	-5.7659239328e+04	-9.8476329334e+02
3.9000000000e+01	disk_to_default	-5.3056440523e+03	1.8230109968e+04	2.0553195570e+03
3.9000000000e+01	disk_to_pad2	-8.3206543573e+04	-6.6809908671e+04	-1.0901749347e+03
3.9000000000e+01	disk_to_pad1	-7.7434667242e+04	-5.7781921530e+04	-9.8467116193e+02
4.0000000000e+01	disk_to_default	-5.5173828948e+03	1.8188233082e+04	2.0564173627e+03
4.0000000000e+01	disk_to_pad2	-8.3255413407e+04	-6.6820839676e+04	-1.0906830038e+03
4.0000000000e+01	disk_to_pad1	-7.7728550974e+04	-5.7892347455e+04	-9.8455727135e+02
4.1000000000e+01	disk_to_default	-5.5516403189e+03	1.8145189372e+04	2.0575434300e+03
4.1000000000e+01	disk_to_pad2	-8.3308932863e+04	-6.6843152991e+04	-1.0913595208e+03
4.1000000000e+01	disk_to_pad1	-7.7981859681e+04	-5.7990969900e+04	-9.8441855628e+02
4.2000000000e+01	disk_to_default	-5.4039601757e+03	1.8104749081e+04	2.0585161966e+03
4.2000000000e+01	disk_to_pad2	-8.3365229055e+04	-6.6876071738e+04	-1.0922056172e+03
4.2000000000e+01	disk_to_pad1	-7.8199831751e+04	-5.8077904894e+04	-9.8425785347e+02
4.3000000000e+01	disk_to_default	-5.1828395792e+03	1.8065266147e+04	2.0595832424e+03
4.3000000000e+01	disk_to_pad2	-8.3425369414e+04	-6.6912113479e+04	-1.0932098507e+03
4.3000000000e+01	disk_to_pad1	-7.8377545440e+04	-5.8154314786e+04	-9.8409774680e+02
4.4000000000e+01	disk_to_default	-5.0343761512e+03	1.8028784296e+04	2.0607076475e+03
4.4000000000e+01	disk_to_pad2	-8.3485693208e+04	-6.6950560471e+04	-1.0943412788e+03
4.4000000000e+01	disk_to_pad1	-7.8514163587e+04	-5.8221004024e+04	-9.8395045798e+02
4.5000000000e+01	disk_to_default	-5.1080252948e+03	1.7995023989e+04	2.0620669408e+03
4.5000000000e+01	disk_to_pad2	-8.3545465901e+04	-6.6982329922e+04	-1.0954537032e+03
4.5000000000e+01	disk_to_pad1	-7.8606962916e+04	-5.8279695759e+04	-9.8378506030e+02
4.6000000000e+01	disk_to_default	-5.5399633857e+03	1.7962694596e+04	2.0631060565e+03
4.6000000000e+01	disk_to_pad2	-8.3602144689e+04	-6.7009931104e+04	-1.0963877703e+03
4.6000000000e+01	disk_to_pad1	-7.8671572490e+04	-5.8334993495e+04	-9.8365236873e+02
4.7000000000e+01	disk_to_default	-5.7520470632e+03	1.7929351243e+04	2.0640200800e+03
4.7000000000e+01	disk_to_pad2	-8.3654383145e+04	-6.7025190719e+04	-1.0970343094e+03
4.7000000000e+01	disk_to_pad1	-7.8707999120e+04	-5.8382705951e+04	-9.8348380669e+02
4.8000000000e+01	disk_to_default	-5.7889243500e+03	1.7899185876e+04	2.0646521550e+03
4.8000000000e+01	disk_to_pad2	-8.3695039667e+04	-6.7033382759e+04	-1.0973414523e+03
4.8000000000e+01	disk_to_pad1	-7.8732878263e+04	-5.8430003891e+04	-9.8338291607e+02
4.9000000000e+01	disk_to_default	-5.8452833371e+03	1.7869916548e+04	2.0653270551e+03
4.9000000000e+01	disk_to_pad2	-8.3721547925e+04	-6.7027337399e+04	-1.0973619934e+03
4.9000000000e+01	disk_to_pad1	-7.8746717454e+04	-5.8477098891e+04	-9.8333511908e+02
5.0000000000e+01	disk_to_default	-5.7752284005e+03	1.7843684317e+04	2.0655760261e+03
5.0000000000e+01	disk_to_pad2	-8.3734412581e+04	-6.7013994232e+04	-1.0971676098e+03
5.0000000000e+01	disk_to_pad1	-7.8755736326e+04	-5.8524294157e+04	-9.8332289874e+02
