# Time           	Tmin             	at location      	Tmax             	at location      	Tmean            	TstDev           	Umin             	at location      	Umax             	at location      	Umean            	UstDev           	pmin             	at location      	pmax             	at location      	pmean            	pstDev           
8.93055e-05      2.9999574492e+02 ( 1.6666666667e-03 9.8750000000e-02 1.2821320174e-20 ) 3.0005563116e+02 ( 2.1274509804e-02 1.2500000000e-03 1.0426908889e-19 ) 3.0000033226e+02 3.5239030623e-03 1.4638874760e-16 ( 2.0375255624e-01 4.9875000000e-01 -1.5909521224e-18 ) 2.4122046514e-01 ( 1.6666666667e-03 9.8750000000e-02 1.2821320174e-20 ) 1.9830554322e-03 1.4982807612e-02 -6.7062301544e+01 ( 1.6666666667e-03 9.8750000000e-02 1.2821320174e-20 ) 5.8568125375e+02 ( 7.1257309942e-02 1.2500000000e-03 -2.4687824492e-19 ) 7.1597809704e+00 5.5282206328e+01 
