# Wall heat-flux 
# Time           	patch            	min              	max              	integral         
1.0000000000e+00	pad1_to_default	4.8163622461e+03	1.4258611651e+04	1.3404009631e+02
1.0000000000e+00	pad1_to_disk	4.5399848210e+04	5.6054319239e+04	7.2454645102e+02
2.0000000000e+00	pad1_to_default	1.5575410807e+04	3.9776001763e+04	3.6724151184e+02
2.0000000000e+00	pad1_to_disk	8.0816594041e+04	1.0179551838e+05	1.3287393193e+03
3.0000000000e+00	pad1_to_default	1.5174546693e+04	3.3036978709e+04	3.5041192968e+02
3.0000000000e+00	pad1_to_disk	6.9712759508e+04	8.8720567597e+04	1.1555943948e+03
4.0000000000e+00	pad1_to_default	1.5621022167e+04	3.3334437117e+04	3.6505415757e+02
4.0000000000e+00	pad1_to_disk	6.7395225466e+04	8.6472603200e+04	1.1243486265e+03
5.0000000000e+00	pad1_to_default	1.6170867143e+04	3.2026792057e+04	3.8225026027e+02
5.0000000000e+00	pad1_to_disk	6.6048620485e+04	8.5830307213e+04	1.1119910355e+03
6.0000000000e+00	pad1_to_default	1.6617033208e+04	3.1956482774e+04	3.9785047035e+02
6.0000000000e+00	pad1_to_disk	6.4653141495e+04	8.5388850486e+04	1.1015151772e+03
7.0000000000e+00	pad1_to_default	1.6624141738e+04	3.2655609073e+04	4.0991205285e+02
7.0000000000e+00	pad1_to_disk	6.3304948461e+04	8.5106059912e+04	1.0924241113e+03
8.0000000000e+00	pad1_to_default	1.6564260844e+04	3.3852156066e+04	4.1939132499e+02
8.0000000000e+00	pad1_to_disk	6.2023203822e+04	8.4971424273e+04	1.0844026631e+03
9.0000000000e+00	pad1_to_default	1.6136318356e+04	3.6356906969e+04	4.2691401026e+02
9.0000000000e+00	pad1_to_disk	6.0530742207e+04	8.4936642474e+04	1.0773300299e+03
1.0000000000e+01	pad1_to_default	1.6327879374e+04	3.8968021306e+04	4.3278009472e+02
1.0000000000e+01	pad1_to_disk	5.8655131975e+04	8.4911479986e+04	1.0708377953e+03
1.1000000000e+01	pad1_to_default	1.5586068062e+04	4.1455097678e+04	4.3857324742e+02
1.1000000000e+01	pad1_to_disk	5.6984302672e+04	8.4824731938e+04	1.0645568773e+03
1.2000000000e+01	pad1_to_default	1.4247028555e+04	4.3624509895e+04	4.4426962271e+02
1.2000000000e+01	pad1_to_disk	5.5635011411e+04	8.4642161294e+04	1.0584646694e+03
1.3000000000e+01	pad1_to_default	1.5533768707e+04	4.5211460606e+04	4.4992530459e+02
1.3000000000e+01	pad1_to_disk	5.4666160773e+04	8.4205003690e+04	1.0525018381e+03
1.4000000000e+01	pad1_to_default	1.5232971290e+04	4.5916398023e+04	4.5626471146e+02
1.4000000000e+01	pad1_to_disk	5.4006731577e+04	8.3485066503e+04	1.0461711486e+03
1.5000000000e+01	pad1_to_default	1.4791032664e+04	4.5778786363e+04	4.6389464420e+02
1.5000000000e+01	pad1_to_disk	5.3662814857e+04	8.2678776520e+04	1.0386136136e+03
1.6000000000e+01	pad1_to_default	1.4373711876e+04	4.5018458359e+04	4.7122364131e+02
1.6000000000e+01	pad1_to_disk	5.3558391466e+04	8.1941655842e+04	1.0306168631e+03
1.7000000000e+01	pad1_to_default	1.4368178404e+04	4.4349623700e+04	4.7750145332e+02
1.7000000000e+01	pad1_to_disk	5.3700324729e+04	8.1458200586e+04	1.0245848604e+03
1.8000000000e+01	pad1_to_default	1.4147655684e+04	4.4271821494e+04	4.8240036608e+02
1.8000000000e+01	pad1_to_disk	5.3871921437e+04	8.1257118442e+04	1.0193678344e+03
1.9000000000e+01	pad1_to_default	1.3741582419e+04	4.4533859059e+04	4.8697434085e+02
1.9000000000e+01	pad1_to_disk	5.4091956832e+04	8.1057980642e+04	1.0146345429e+03
2.0000000000e+01	pad1_to_default	1.3887799980e+04	4.4587161489e+04	4.9173345487e+02
2.0000000000e+01	pad1_to_disk	5.4359698724e+04	8.0838917199e+04	1.0099258872e+03
2.1000000000e+01	pad1_to_default	1.3804095470e+04	4.4303093133e+04	4.9564842255e+02
2.1000000000e+01	pad1_to_disk	5.4651541108e+04	8.0702607341e+04	1.0058338540e+03
2.2000000000e+01	pad1_to_default	1.3475184125e+04	4.3992159187e+04	4.9880816681e+02
2.2000000000e+01	pad1_to_disk	5.4923120098e+04	8.0608293718e+04	1.0023779960e+03
2.3000000000e+01	pad1_to_default	1.3982381052e+04	4.3922137051e+04	5.0146189844e+02
2.3000000000e+01	pad1_to_disk	5.5154239289e+04	8.0520946935e+04	9.9941804648e+02
2.4000000000e+01	pad1_to_default	1.3329855269e+04	4.4519153406e+04	5.0336469848e+02
2.4000000000e+01	pad1_to_disk	5.5368258423e+04	8.0440757813e+04	9.9721471352e+02
2.5000000000e+01	pad1_to_default	1.3581641780e+04	4.4945152335e+04	5.0482781760e+02
2.5000000000e+01	pad1_to_disk	5.5577950584e+04	8.0345804784e+04	9.9548605380e+02
2.6000000000e+01	pad1_to_default	1.3795341496e+04	4.5200516711e+04	5.0620676121e+02
2.6000000000e+01	pad1_to_disk	5.5787242115e+04	8.0213201926e+04	9.9400564844e+02
2.7000000000e+01	pad1_to_default	1.3839602811e+04	4.5291472794e+04	5.0746255845e+02
2.7000000000e+01	pad1_to_disk	5.5986429889e+04	8.0050354452e+04	9.9268605502e+02
2.8000000000e+01	pad1_to_default	1.3774203513e+04	4.5287783632e+04	5.0859236728e+02
2.8000000000e+01	pad1_to_disk	5.6169472123e+04	7.9883245960e+04	9.9152103821e+02
2.9000000000e+01	pad1_to_default	1.3798151351e+04	4.5247723943e+04	5.0973719665e+02
2.9000000000e+01	pad1_to_disk	5.6334491811e+04	7.9718734832e+04	9.9039988041e+02
3.0000000000e+01	pad1_to_default	1.4333280441e+04	4.5193390501e+04	5.1085041156e+02
3.0000000000e+01	pad1_to_disk	5.6483176876e+04	7.9543792445e+04	9.8931388373e+02
3.1000000000e+01	pad1_to_default	1.4165079729e+04	4.5115548486e+04	5.1186624389e+02
3.1000000000e+01	pad1_to_disk	5.6625818141e+04	7.9347704019e+04	9.8833805974e+02
3.2000000000e+01	pad1_to_default	1.4377395947e+04	4.5010642921e+04	5.1280787028e+02
3.2000000000e+01	pad1_to_disk	5.6764161247e+04	7.9122101863e+04	9.8741704756e+02
3.3000000000e+01	pad1_to_default	1.4633633220e+04	4.4875875081e+04	5.1361726916e+02
3.3000000000e+01	pad1_to_disk	5.6905840882e+04	7.8869479992e+04	9.8661718704e+02
3.4000000000e+01	pad1_to_default	1.4982210970e+04	4.4725817417e+04	5.1423177577e+02
3.4000000000e+01	pad1_to_disk	5.7052893525e+04	7.8585757535e+04	9.8599145216e+02
3.5000000000e+01	pad1_to_default	1.5161397603e+04	4.4563342007e+04	5.1465858026e+02
3.5000000000e+01	pad1_to_disk	5.7202673402e+04	7.8267162230e+04	9.8554386100e+02
3.6000000000e+01	pad1_to_default	1.5190763036e+04	4.4394091556e+04	5.1493139659e+02
3.6000000000e+01	pad1_to_disk	5.7351079168e+04	7.7940211694e+04	9.8525167348e+02
3.7000000000e+01	pad1_to_default	1.5022434135e+04	4.4215245705e+04	5.1511062805e+02
3.7000000000e+01	pad1_to_disk	5.7494952520e+04	7.7706289204e+04	9.8506298894e+02
3.8000000000e+01	pad1_to_default	1.4916188186e+04	4.4033777211e+04	5.1523038517e+02
3.8000000000e+01	pad1_to_disk	5.7630082210e+04	7.7438017874e+04	9.8493126666e+02
3.9000000000e+01	pad1_to_default	1.4853969282e+04	4.3847298846e+04	5.1532395799e+02
3.9000000000e+01	pad1_to_disk	5.7755216289e+04	7.7347853760e+04	9.8482644281e+02
4.0000000000e+01	pad1_to_default	1.4771730259e+04	4.3665483541e+04	5.1543978721e+02
4.0000000000e+01	pad1_to_disk	5.7868194012e+04	7.7648475546e+04	9.8470479892e+02
4.1000000000e+01	pad1_to_default	1.4739791191e+04	4.3482859430e+04	5.1558103101e+02
4.1000000000e+01	pad1_to_disk	5.7969217194e+04	7.7911428416e+04	9.8455869562e+02
4.2000000000e+01	pad1_to_default	1.4744637248e+04	4.3307263128e+04	5.1574239131e+02
4.2000000000e+01	pad1_to_disk	5.8058027385e+04	7.8137984861e+04	9.8438118864e+02
4.3000000000e+01	pad1_to_default	1.4755936490e+04	4.3138363142e+04	5.1589904675e+02
4.3000000000e+01	pad1_to_disk	5.8135841124e+04	7.8325109910e+04	9.8419668068e+02
4.4000000000e+01	pad1_to_default	1.4757862493e+04	4.2981549264e+04	5.1604636761e+02
4.4000000000e+01	pad1_to_disk	5.8203093268e+04	7.8471070363e+04	9.8401334427e+02
4.5000000000e+01	pad1_to_default	1.4747419552e+04	4.2830945729e+04	5.1621191265e+02
4.5000000000e+01	pad1_to_disk	5.8262729965e+04	7.8574809865e+04	9.8382921519e+02
4.6000000000e+01	pad1_to_default	1.4758548618e+04	4.2690506114e+04	5.1634611842e+02
4.6000000000e+01	pad1_to_disk	5.8317658948e+04	7.8646892051e+04	9.8366527814e+02
4.7000000000e+01	pad1_to_default	1.4818803987e+04	4.2555459976e+04	5.1651875423e+02
4.7000000000e+01	pad1_to_disk	5.8366537865e+04	7.8691042040e+04	9.8349177195e+02
4.8000000000e+01	pad1_to_default	1.4932605969e+04	4.2430273171e+04	5.1662092913e+02
4.8000000000e+01	pad1_to_disk	5.8413421678e+04	7.8719559822e+04	9.8336333090e+02
4.9000000000e+01	pad1_to_default	1.5077617372e+04	4.2310200595e+04	5.1666479623e+02
4.9000000000e+01	pad1_to_disk	5.8460708610e+04	7.8736916675e+04	9.8329973103e+02
5.0000000000e+01	pad1_to_default	1.5203099956e+04	4.2199976353e+04	5.1667980998e+02
5.0000000000e+01	pad1_to_disk	5.8507095452e+04	7.8747029665e+04	9.8326409998e+02
