# Time           	Umin             	at location      	Umax             	at location      	Umean            	UstDev           	pmin             	at location      	pmax             	at location      	pmean            	pstDev           
1                1.7961381017e-02 ( 2.5277241227e+00 3.0124171914e-02 -9.8351816757e-01 ) 1.1678836700e+02 ( -4.6755123144e-02 1.6902888300e+00 -4.5880887366e-01 ) 2.2360380343e+00 2.6956176894e+00 -1.0237414870e+04 ( -8.2901910753e-02 1.7157351355e+00 4.1978590682e-01 ) -3.7180466023e+01 ( 4.3295353391e+00 1.3622547930e+00 2.9459809226e-01 ) -6.8494158990e+02 3.1728758181e+02 
2                3.6060187744e-01 ( 1.7906152247e-01 2.9726666743e-02 9.8396713386e-01 ) 8.2481739986e+01 ( -4.8185191603e-02 1.7155795782e+00 4.1948695718e-01 ) 3.1952303077e+00 2.3275500063e+00 -7.8612649062e+03 ( -4.8185191603e-02 1.7155795782e+00 4.1948695718e-01 ) 4.9557715672e+02 ( 4.3102743590e-03 1.9765857231e+00 4.6342048310e-01 ) -5.2012878008e+01 1.1592486685e+02 
3                3.7554782738e-02 ( 2.8258979288e+00 1.7907579925e-02 -9.6706001729e-01 ) 7.1045891989e+01 ( -8.0100578667e-02 1.8304846788e+00 4.9963558865e-01 ) 2.4843737012e+00 2.1118270511e+00 -8.7988524884e+03 ( -4.8185191603e-02 1.7155795782e+00 4.1948695718e-01 ) 4.5288204198e+02 ( 4.3102743590e-03 1.9765857231e+00 4.6342048310e-01 ) 4.7376887940e+01 1.5813166318e+02 
4                3.2041364139e-02 ( 8.8772704575e-01 4.8835613570e-03 9.7704095870e-01 ) 8.1303563277e+01 ( -8.0074282915e-02 1.8578194999e+00 -4.9988556757e-01 ) 1.8053925413e+00 2.2448591920e+00 -9.2552383174e+03 ( -4.8185191603e-02 1.7155795782e+00 4.1948695718e-01 ) 6.8911314001e+01 ( 3.9190719198e-03 1.9781472019e+00 -9.7816816823e-01 ) -3.0179680839e+01 1.6366054442e+02 
5                2.3834810242e-02 ( 2.6185962144e-02 4.9732351452e-03 2.7777685399e-01 ) 9.5979030187e+01 ( -8.0100578667e-02 1.8304846788e+00 4.9963558865e-01 ) 1.7726093760e+00 2.5356166147e+00 -1.0732232820e+04 ( -4.8185191603e-02 1.7155795782e+00 4.1948695718e-01 ) -1.3899128472e+01 ( 4.3295352708e+00 1.9938008857e+00 -9.6880481639e-01 ) -2.0866957247e+02 2.0669765368e+02 
6                2.9399054894e-02 ( 2.6209090904e+00 1.1851249112e-02 -4.4442854411e-01 ) 1.0874501754e+02 ( -8.0100578667e-02 1.8304846788e+00 4.9963558865e-01 ) 2.1751947802e+00 2.7657761096e+00 -1.1516457171e+04 ( -4.8185191603e-02 1.7155795782e+00 4.1948695718e-01 ) -2.0123434738e+01 ( 4.3295352708e+00 1.9938008857e+00 -9.6880481639e-01 ) -2.5890485440e+02 2.2261731594e+02 
7                8.6047129293e-02 ( 2.5680139755e-01 1.4482073394e-01 9.1419967938e-01 ) 1.1866485816e+02 ( -8.0100578667e-02 1.8304846788e+00 4.9963558865e-01 ) 2.5890906462e+00 2.9477091630e+00 -1.2002412327e+04 ( -4.8185191603e-02 1.7155795782e+00 4.1948695718e-01 ) -2.4386213384e+01 ( 4.3295353391e+00 2.3027578359e-01 -4.4392006520e-01 ) -2.6489179404e+02 2.2545611255e+02 
8                7.7469307393e-02 ( 4.7809010956e-01 1.1196202014e-01 9.1853622622e-01 ) 1.2000000000e+02 ( -7.9565693948e-02 1.7687903060e+00 4.9968010237e-01 ) 2.7751078720e+00 3.0522420532e+00 -1.2530599339e+04 ( -4.8185191603e-02 1.7155795782e+00 4.1948695718e-01 ) -2.7346092572e+01 ( 4.3295353394e+00 1.6041392210e-01 -3.7026645070e-01 ) -2.6354843220e+02 2.3220738846e+02 
9                4.5037432178e-02 ( 4.4047251881e-01 4.4130133029e-02 9.3203507746e-01 ) 1.2000000000e+02 ( -8.0069966001e-02 1.8306539238e+00 -4.9975334121e-01 ) 2.7788848099e+00 3.1088641397e+00 -1.3187540352e+04 ( -4.8186958014e-02 1.7155855981e+00 -4.1948296079e-01 ) -2.8891888344e+01 ( 4.3295347524e+00 4.3618943927e-02 -9.5530261816e-01 ) -2.6611926288e+02 2.4428531086e+02 
10               1.0303618620e-01 ( 4.0321159320e-01 4.4126212089e-02 9.3204211237e-01 ) 1.2000000000e+02 ( -8.0069966001e-02 1.8306539238e+00 -4.9975334121e-01 ) 2.7382998955e+00 3.1579442051e+00 -1.3890684155e+04 ( -4.8186958014e-02 1.7155855981e+00 -4.1948296079e-01 ) -2.8912115430e+01 ( 4.3295340170e+00 1.9343421182e+00 -9.9370296954e-01 ) -2.6920052790e+02 2.5819650119e+02 
11               1.4608019972e-01 ( 2.9154320478e-01 4.4075810198e-02 9.3213572869e-01 ) 1.2000000000e+02 ( -7.9565693948e-02 1.7687903060e+00 4.9968010237e-01 ) 2.7388968769e+00 3.2097918447e+00 -1.4561771500e+04 ( -4.8186958014e-02 1.7155855981e+00 -4.1948296079e-01 ) -2.7432593285e+01 ( 4.3295346783e+00 1.9749669247e+00 9.9495517971e-01 ) -2.6863009783e+02 2.7148728197e+02 
12               9.1522127887e-02 ( 4.7760927368e-03 2.2681350532e-02 -2.4074108159e-01 ) 1.2000000000e+02 ( -7.9592191100e-02 1.7680195632e+00 4.6937144418e-01 ) 2.7920024341e+00 3.2578164616e+00 -1.5170755589e+04 ( -4.8186958014e-02 1.7155855981e+00 -4.1948296079e-01 ) -2.6067165861e+01 ( 4.3295346783e+00 1.9749669247e+00 9.9495517971e-01 ) -2.6088640678e+02 2.8300135236e+02 
13               9.8586002187e-02 ( 4.7760927305e-03 2.2681350787e-02 -2.0370336231e-01 ) 1.2000000000e+02 ( -7.9773062787e-02 1.7681496592e+00 5.3016353986e-01 ) 2.8691168469e+00 3.3030845403e+00 -1.5747263418e+04 ( -4.8186958014e-02 1.7155855981e+00 -4.1948296079e-01 ) -2.4986237177e+01 ( 4.3295346783e+00 1.9749669247e+00 9.9495517971e-01 ) -2.5272592938e+02 2.9367569226e+02 
14               1.3218403443e-01 ( 2.6185971086e-02 4.9732346863e-03 -1.2962871573e-01 ) 1.2000000000e+02 ( -4.0096642802e-02 1.8622090734e+00 4.6478219779e-01 ) 2.9416954218e+00 3.3482505218e+00 -1.6330796963e+04 ( -4.8186958014e-02 1.7155855981e+00 -4.1948296079e-01 ) -2.4601890079e+01 ( 4.3295337751e+00 2.5800284588e-02 -9.9490600977e-01 ) -2.4921494052e+02 3.0445456837e+02 
15               1.3455269736e-01 ( 8.7493882608e-03 1.8065180578e+00 -2.9807897576e-10 ) 1.2000000000e+02 ( -8.0520712589e-02 1.8615046698e+00 5.3424748079e-01 ) 2.9983479953e+00 3.3908882650e+00 -1.6919909482e+04 ( -4.8186958014e-02 1.7155855981e+00 -4.1948296079e-01 ) -2.4721072068e+01 ( 4.3295337751e+00 2.5800284588e-02 -9.9490600977e-01 ) -2.5128741427e+02 3.1526069488e+02 
16               1.4635617090e-01 ( 8.7493882608e-03 1.8065180578e+00 -2.9807897576e-10 ) 1.2000000000e+02 ( -3.8066896981e-02 1.7680012269e+00 4.9973669044e-01 ) 3.0412658529e+00 3.4307480436e+00 -1.7491928022e+04 ( -4.8186958014e-02 1.7155855981e+00 -4.1948296079e-01 ) -2.5270441849e+01 ( 4.3295353256e+00 1.1795270321e-02 -5.1803408675e-01 ) -2.5708793359e+02 3.2556881738e+02 
17               1.1641688886e-01 ( 2.6185971101e-02 4.9732346833e-03 -5.5554641673e-02 ) 1.2000000000e+02 ( -3.8706805418e-02 1.7638779308e+00 4.3786077758e-01 ) 3.0770311168e+00 3.4681272922e+00 -1.8017684356e+04 ( -4.8186958014e-02 1.7155855981e+00 -4.1948296079e-01 ) -2.5994530181e+01 ( 4.3295353256e+00 1.1795270321e-02 -5.1803408675e-01 ) -2.6389724336e+02 3.3490777490e+02 
18               5.4103322354e-02 ( 2.6185971101e-02 4.9732346833e-03 -1.8519432401e-02 ) 1.2000000000e+02 ( -3.8534047033e-02 1.7989755347e+00 4.6841987716e-01 ) 3.1105304377e+00 3.5035828864e+00 -1.8487275936e+04 ( -4.8186958014e-02 1.7155855981e+00 -4.1948296079e-01 ) -2.6743502142e+01 ( 4.3295353372e+00 1.1837350836e-02 -4.4429411250e-01 ) -2.6978842837e+02 3.4315228383e+02 
19               2.8650451381e-02 ( 2.6185971101e-02 4.9732346833e-03 -5.5554641673e-02 ) 1.2000000000e+02 ( -3.7619820595e-02 1.7985684668e+00 4.4116289924e-01 ) 3.1433158083e+00 3.5364857013e+00 -1.8902948555e+04 ( -4.8186958014e-02 1.7155855981e+00 -4.1948296079e-01 ) -2.7408764159e+01 ( 4.3295353372e+00 1.1837350836e-02 -4.4429411250e-01 ) -2.7382291582e+02 3.5043279365e+02 
20               7.7049984126e-02 ( 2.6185971097e-02 4.9732346841e-03 -9.2593506467e-02 ) 1.2000000000e+02 ( -8.0036337551e-02 1.7372577861e+00 5.3244844568e-01 ) 3.1748541313e+00 3.5663014184e+00 -1.9275963299e+04 ( -4.8186958014e-02 1.7155855981e+00 -4.1948296079e-01 ) -2.7950448688e+01 ( 4.3295353388e+00 1.1851450731e-02 -2.9628635493e-01 ) -2.7604929484e+02 3.5700803389e+02 
21               7.6605781491e-02 ( 6.7442363470e-02 6.3922991034e-03 -1.8524612704e-02 ) 1.2000000000e+02 ( -8.0277449674e-02 1.8259097482e+00 4.1563683314e-01 ) 3.2042983571e+00 3.5927517225e+00 -1.9620310187e+04 ( -4.8304902058e-02 1.7157865209e+00 5.8070048429e-01 ) -2.8360226976e+01 ( 4.3295353390e+00 1.1851850430e-02 -1.4814775502e-01 ) -2.7699743762e+02 3.6312093926e+02 
22               4.6048819257e-02 ( 6.7442363453e-02 6.3922991085e-03 -9.2598686736e-02 ) 1.2000000000e+02 ( -8.0179769826e-02 1.7158964785e+00 4.7286966643e-01 ) 3.2311750868e+00 3.6158974689e+00 -1.9940824750e+04 ( -4.8304902058e-02 1.7157865209e+00 5.8070048429e-01 ) -2.8474103791e+01 ( 4.3295353391e+00 1.3622547930e+00 2.9459809226e-01 ) -2.7726038252e+02 3.6893032194e+02 
23               5.3176985292e-02 ( 1.1059520923e-01 7.3658544038e-03 -5.5003973468e-02 ) 1.2000000000e+02 ( -8.0015086606e-02 1.7646175634e+00 4.3883963275e-01 ) 3.2556955406e+00 3.6367805852e+00 -2.0243504325e+04 ( -4.8304902058e-02 1.7157865209e+00 5.8070048429e-01 ) -2.8514531338e+01 ( 4.3295353391e+00 1.3622547930e+00 2.9459809226e-01 ) -2.7751297174e+02 3.7455166214e+02 
24               7.0936020803e-02 ( 1.6871826763e-01 8.8517504860e-03 -5.1603291943e-10 ) 1.2000000000e+02 ( -3.8971653824e-02 1.7980008890e+00 4.1502847797e-01 ) 3.2785682152e+00 3.6560202474e+00 -2.0559019333e+04 ( -8.2901910753e-02 1.7157351355e+00 4.1978590682e-01 ) -2.8617018698e+01 ( 4.3295353391e+00 1.3622547930e+00 2.9459809226e-01 ) -2.7812087645e+02 3.7999515945e+02 
25               6.6065835094e-02 ( 5.8284532483e-03 5.8387492101e-02 -2.0370256322e-01 ) 1.2000000000e+02 ( -3.9480382541e-02 1.7992525756e+00 4.9971154793e-01 ) 3.3001733786e+00 3.6732306438e+00 -2.0880124605e+04 ( -8.2901910753e-02 1.7157351355e+00 4.1978590682e-01 ) -2.8776428291e+01 ( 4.3295353391e+00 1.3617942949e+00 2.2172760106e-01 ) -2.7901944127e+02 3.8521380549e+02 
26               6.9302741253e-02 ( 3.8712478865e-03 1.9782384726e+00 9.7823865300e-01 ) 1.2000000000e+02 ( -3.7519800440e-02 1.7673017008e+00 4.6860100435e-01 ) 3.3204464960e+00 3.6881914812e+00 -2.1166794355e+04 ( -8.2902671983e-02 1.7157387499e+00 -4.1978335415e-01 ) -2.8972967740e+01 ( 4.3295353391e+00 1.3617942949e+00 2.2172760106e-01 ) -2.8005604975e+02 3.9018838305e+02 
27               5.2276034060e-02 ( 5.8284533110e-03 5.8387491066e-02 -2.4074187881e-01 ) 1.2000000000e+02 ( -4.0077572724e-02 1.8621910039e+00 -4.6472231529e-01 ) 3.3392414863e+00 3.7013878441e+00 -2.1435180188e+04 ( -8.2902671983e-02 1.7157387499e+00 -4.1978335415e-01 ) -2.9184307698e+01 ( 4.3295353391e+00 1.3617942949e+00 2.2172760106e-01 ) -2.8109309944e+02 3.9492533057e+02 
28               5.8667680188e-02 ( 2.1745655580e-01 7.8910608191e-02 9.2352200042e-01 ) 1.2000000000e+02 ( -4.0129361301e-02 1.7688465960e+00 4.1643081345e-01 ) 3.3565768301e+00 3.7129843913e+00 -2.1676236255e+04 ( -8.2902671983e-02 1.7157387499e+00 -4.1978335415e-01 ) -2.9398689594e+01 ( 4.3295353391e+00 1.3617942949e+00 2.2172760106e-01 ) -2.8210860077e+02 3.9947119580e+02 
29               4.6168237497e-02 ( 6.3000387670e-02 1.9775510241e+00 9.9544480129e-01 ) 1.2000000000e+02 ( -7.9773062787e-02 1.7681496592e+00 5.3016353986e-01 ) 3.3726428210e+00 3.7231080308e+00 -2.1901975647e+04 ( -8.2902671983e-02 1.7157387499e+00 -4.1978335415e-01 ) -2.9599503944e+01 ( 4.3295353391e+00 1.3617942949e+00 2.2172760106e-01 ) -2.8302088249e+02 4.0384564692e+02 
30               6.1890309161e-02 ( 6.3000387670e-02 1.9775510241e+00 9.9544480129e-01 ) 1.2000000000e+02 ( -8.1458793455e-02 1.7595859364e+00 4.0419209462e-01 ) 3.3877229625e+00 3.7325305755e+00 -2.2120511818e+04 ( -8.2902671983e-02 1.7157387499e+00 -4.1978335415e-01 ) -2.9796107827e+01 ( 4.3295353391e+00 1.2916629828e+00 2.2147615938e-01 ) -2.8398001166e+02 4.0808882502e+02 
31               6.6434801482e-02 ( 5.4073183961e-03 5.7657363123e-02 -9.4253621434e-01 ) 1.2000000000e+02 ( -7.9592191100e-02 1.7680195632e+00 4.6937144418e-01 ) 3.4021475379e+00 3.7413411722e+00 -2.2336267819e+04 ( -8.2902671983e-02 1.7157387499e+00 -4.1978335415e-01 ) -2.9981513436e+01 ( 4.3295353391e+00 1.2916629828e+00 2.2147615938e-01 ) -2.8494355330e+02 4.1219926192e+02 
32               4.5515722347e-02 ( 2.5552064605e-02 4.8540302396e-03 -9.0654466077e-01 ) 1.2000000000e+02 ( -3.7519800440e-02 1.7673017008e+00 4.6860100435e-01 ) 3.4159902381e+00 3.7496562503e+00 -2.2550581064e+04 ( -8.2902671983e-02 1.7157387499e+00 -4.1978335415e-01 ) -3.0155441022e+01 ( 4.3295353391e+00 1.2916629828e+00 2.2147615938e-01 ) -2.8591534252e+02 4.1618544945e+02 
33               6.7884062220e-02 ( 2.1706289086e-01 5.3685840503e-03 -9.7503978636e-01 ) 1.2000000000e+02 ( -8.0179769826e-02 1.7158964785e+00 4.7286966643e-01 ) 3.4292399161e+00 3.7575067222e+00 -2.2763199476e+04 ( -8.2902671983e-02 1.7157387499e+00 -4.1978335415e-01 ) -3.0318070952e+01 ( 4.3295353391e+00 1.2916629828e+00 2.2147615938e-01 ) -2.8689960880e+02 4.2004153310e+02 
34               6.9368938931e-02 ( 2.1668572730e-01 2.2785959123e-02 -9.9499738128e-01 ) 1.2000000000e+02 ( -3.8706805418e-02 1.7638779308e+00 4.3786077758e-01 ) 3.4418895813e+00 3.7650069127e+00 -2.2973209467e+04 ( -8.2902671983e-02 1.7157387499e+00 -4.1978335415e-01 ) -3.0470748319e+01 ( 4.3295353391e+00 1.2201288614e+00 2.2123317152e-01 ) -2.8790355233e+02 4.2377145273e+02 
35               8.7197596612e-02 ( 2.5166560295e-02 1.9065838937e+00 -9.9517744255e-01 ) 1.2000000000e+02 ( -8.0100578667e-02 1.8304846788e+00 4.9963558865e-01 ) 3.4539404350e+00 3.7720783826e+00 -2.3179037950e+04 ( -8.2902671983e-02 1.7157387499e+00 -4.1978335415e-01 ) -3.0608584772e+01 ( 4.3295353391e+00 1.2195965203e+00 1.4796135209e-01 ) -2.8886833833e+02 4.2736228575e+02 
36               1.0225952475e-01 ( 2.5407760263e-01 2.2841066543e-02 -9.9499407834e-01 ) 1.2000000000e+02 ( -8.0455200149e-02 1.8260158618e+00 5.8415232719e-01 ) 3.4654011491e+00 3.7788766902e+00 -2.3379045847e+04 ( -8.2902671983e-02 1.7157387499e+00 -4.1978335415e-01 ) -3.0734435385e+01 ( 4.3295353391e+00 1.2195965203e+00 1.4796135209e-01 ) -2.8980170174e+02 4.3081308197e+02 
37               4.1407516461e-02 ( 1.0616774629e-01 6.2526639452e-03 -9.3940686792e-01 ) 1.2000000000e+02 ( -3.9787569277e-02 1.8305874219e+00 4.9981651941e-01 ) 3.4763097070e+00 3.7854453532e+00 -2.3572384531e+04 ( -8.2902671983e-02 1.7157387499e+00 -4.1978335415e-01 ) -3.0850523709e+01 ( 4.3295353391e+00 1.2195965203e+00 1.4796135209e-01 ) -2.9070416836e+02 4.3412258914e+02 
38               5.5131753816e-02 ( 1.0489029799e-01 3.7543649212e-02 -9.6255656443e-01 ) 1.2000000000e+02 ( -8.1458793455e-02 1.7595859364e+00 4.0419209462e-01 ) 3.4867123994e+00 3.7917554931e+00 -2.3758485797e+04 ( -8.2902671983e-02 1.7157387499e+00 -4.1978335415e-01 ) -3.0958291422e+01 ( 4.3295353391e+00 1.2195965203e+00 1.4796135209e-01 ) -2.9157155973e+02 4.3729617176e+02 
39               5.7196687350e-02 ( 6.6189273672e-02 6.2558523875e-03 -8.6908263838e-01 ) 1.2000000000e+02 ( -8.0841848055e-02 1.7377724755e+00 4.4090445595e-01 ) 3.4966330407e+00 3.7978185162e+00 -2.3936130831e+04 ( -8.2902671983e-02 1.7157387499e+00 -4.1978335415e-01 ) -3.1057509995e+01 ( 4.3295353391e+00 1.2195965203e+00 1.4796135209e-01 ) -2.9238786527e+02 4.4033324197e+02 
40               3.1454350975e-02 ( 1.0685694078e-01 2.0498222544e-02 -9.3640476109e-01 ) 1.2000000000e+02 ( -4.2663576264e-02 1.7975316282e+00 3.9513468080e-01 ) 3.5060546304e+00 3.8035975117e+00 -2.4104969808e+04 ( -8.2902671983e-02 1.7157387499e+00 -4.1978335415e-01 ) -3.1146854220e+01 ( 4.3295353391e+00 1.2195965203e+00 1.4796135209e-01 ) -2.9313247307e+02 4.4323442475e+02 
41               7.0147384094e-02 ( 1.4236829398e-01 3.8376250062e-02 -9.6172898781e-01 ) 1.2000000000e+02 ( -4.0129361301e-02 1.7688465960e+00 4.1643081345e-01 ) 3.5149045357e+00 3.8089853812e+00 -2.4265004153e+04 ( -8.2902671983e-02 1.7157387499e+00 -4.1978335415e-01 ) -3.1222863030e+01 ( 4.3295353391e+00 1.2195965203e+00 1.4796135209e-01 ) -2.9377114533e+02 4.4600832048e+02 
42               9.9716452134e-02 ( 1.2991089634e-02 1.9721838111e+00 -9.7224408990e-01 ) 1.2000000000e+02 ( -3.9027501865e-02 1.8306963844e+00 4.6787244510e-01 ) 3.5231667713e+00 3.8140872695e+00 -2.4416682687e+04 ( -8.2902671983e-02 1.7157387499e+00 -4.1978335415e-01 ) -3.1291698059e+01 ( 4.3295353391e+00 1.1470902701e+00 1.4779557306e-01 ) -2.9436434956e+02 4.4866791241e+02 
43               9.2634273098e-02 ( 1.6731403097e-01 8.3569002300e-03 7.3835892646e-01 ) 1.2000000000e+02 ( 8.8570827595e-04 1.8635584021e+00 -5.3630460337e-01 ) 3.5309332944e+00 3.8188450699e+00 -2.4560384548e+04 ( -8.2902671983e-02 1.7157387499e+00 -4.1978335415e-01 ) -3.1355235256e+01 ( 4.3295353391e+00 1.1470902701e+00 1.4779557306e-01 ) -2.9492342127e+02 4.5121705333e+02 
44               6.0184384388e-02 ( 1.0625835939e-01 6.7308298661e-02 -9.5819527973e-01 ) 1.2000000000e+02 ( -8.1202735851e-02 1.7972714025e+00 3.9591097225e-01 ) 3.5382705430e+00 3.8234410914e+00 -2.4697719468e+04 ( -8.2902671983e-02 1.7157387499e+00 -4.1978335415e-01 ) -3.1417348440e+01 ( 4.3295353391e+00 1.1470902701e+00 1.4779557306e-01 ) -2.9547840297e+02 4.5367051979e+02 
45               4.8096145158e-02 ( 1.0625835939e-01 6.7308298661e-02 -9.5819527973e-01 ) 1.2000000000e+02 ( -8.1630358501e-02 1.7026475832e+00 5.3715699012e-01 ) 3.5452249471e+00 3.8279450790e+00 -2.4829892444e+04 ( -8.2902671983e-02 1.7157387499e+00 -4.1978335415e-01 ) -3.1480948295e+01 ( 4.3295353391e+00 1.0738204132e+00 1.4746231241e-01 ) -2.9605199707e+02 4.5603321600e+02 
46               4.8282194969e-02 ( 6.0818713904e-01 8.7681843734e-03 -8.7938740589e-01 ) 1.2000000000e+02 ( -4.0129361301e-02 1.7688465960e+00 4.1643081345e-01 ) 3.5518576252e+00 3.8323395814e+00 -2.4957246892e+04 ( -8.2902671983e-02 1.7157387499e+00 -4.1978335415e-01 ) -3.1546649101e+01 ( 4.3295353391e+00 1.0738204132e+00 1.4746231241e-01 ) -2.9664127255e+02 4.5830319040e+02 
47               2.2723386870e-02 ( 1.4444390144e-01 1.3400601309e-01 -9.7771029296e-01 ) 1.2000000000e+02 ( -8.1351556775e-02 1.7023921330e+00 4.6380884747e-01 ) 3.5581814312e+00 3.8366698074e+00 -2.5079955671e+04 ( -8.2902671983e-02 1.7157387499e+00 -4.1978335415e-01 ) -3.1614159569e+01 ( 4.3295353391e+00 1.0738204132e+00 1.4746231241e-01 ) -2.9724014218e+02 4.6048219676e+02 
48               6.5609867063e-02 ( 6.2682386235e-01 5.4215181051e-03 -9.7460996979e-01 ) 1.2000000000e+02 ( -3.8706805418e-02 1.7638779308e+00 4.3786077758e-01 ) 3.5641721112e+00 3.8409146084e+00 -2.5198072391e+04 ( -8.2902671983e-02 1.7157387499e+00 -4.1978335415e-01 ) -3.1681088975e+01 ( 4.3295353391e+00 1.0738204132e+00 1.4746231241e-01 ) -2.9782668630e+02 4.6257189337e+02 
49               7.7076260831e-02 ( 1.5737928142e-02 2.9523197091e-02 -6.1110989529e-01 ) 1.2000000000e+02 ( -3.8972457622e-02 1.7365115456e+00 5.3336677062e-01 ) 3.5698531575e+00 3.8450651035e+00 -2.5311742370e+04 ( -8.2902671983e-02 1.7157387499e+00 -4.1978335415e-01 ) -3.1746042219e+01 ( 4.3295353391e+00 1.0738204132e+00 1.4746231241e-01 ) -2.9839124653e+02 4.6457920128e+02 
50               3.4860464890e-02 ( 3.6595264897e-01 6.6627762267e-03 9.0280844382e-01 ) 1.2000000000e+02 ( -8.0301497036e-02 1.7692920130e+00 4.1732693167e-01 ) 3.5752535923e+00 3.8491523546e+00 -2.5420600672e+04 ( -8.2902671983e-02 1.7157387499e+00 -4.1978335415e-01 ) -3.1809192340e+01 ( 4.3295353391e+00 1.0738204132e+00 1.4746231241e-01 ) -2.9893950244e+02 4.6650970373e+02 
51               7.3847002372e-02 ( 1.6870541719e-01 8.8506227066e-03 -5.1849478594e-01 ) 1.2000000000e+02 ( -3.9055216149e-02 1.7990866076e+00 5.3094785532e-01 ) 3.5804156514e+00 3.8530971550e+00 -2.5524656826e+04 ( -8.2902671983e-02 1.7157387499e+00 -4.1978335415e-01 ) -3.1867952330e+01 ( 4.3295353391e+00 1.0000366738e+00 1.4708276503e-01 ) -2.9945211388e+02 4.6836607618e+02 
52               3.1553911579e-02 ( 1.0368179549e+00 4.8835613519e-03 9.7704095869e-01 ) 1.2000000000e+02 ( -3.7519800440e-02 1.7673017008e+00 4.6860100435e-01 ) 3.5853532584e+00 3.8569511460e+00 -2.5624096432e+04 ( -8.2902671983e-02 1.7157387499e+00 -4.1978335415e-01 ) -3.1923884042e+01 ( 4.3295353391e+00 1.0000366738e+00 1.4708276503e-01 ) -2.9994630420e+02 4.7015561764e+02 
53               4.4241357125e-02 ( 4.0321350790e-01 6.6635000850e-03 9.0278867180e-01 ) 1.2000000000e+02 ( -7.9699726278e-02 1.7990789342e+00 4.6893756149e-01 ) 3.5900893043e+00 3.8607447115e+00 -2.5719085423e+04 ( -8.2902671983e-02 1.7157387499e+00 -4.1978335415e-01 ) -3.1978487630e+01 ( 4.3295353391e+00 1.0000366738e+00 1.4708276503e-01 ) -3.0043680027e+02 4.7188136063e+02 
54               6.2841697272e-02 ( 2.3954766227e-01 1.0442523557e-02 2.2222187896e-01 ) 1.2000000000e+02 ( -8.1458793455e-02 1.7595859364e+00 4.0419209462e-01 ) 3.5946424642e+00 3.8644896038e+00 -2.5809755119e+04 ( -8.2902671983e-02 1.7157387499e+00 -4.1978335415e-01 ) -3.2031913650e+01 ( 4.3295353391e+00 1.0000366738e+00 1.4708276503e-01 ) -3.0092405846e+02 4.7354323651e+02 
55               3.8115437957e-02 ( 2.3954781648e-01 1.0442509330e-02 -8.7872441081e-10 ) 1.2000000000e+02 ( -3.9205040546e-02 1.8327503887e+00 4.3614508194e-01 ) 3.5990510017e+00 3.8681669645e+00 -2.5896313911e+04 ( -8.2902671983e-02 1.7157387499e+00 -4.1978335415e-01 ) -3.2083654301e+01 ( 4.3295353391e+00 1.0000366738e+00 1.4708276503e-01 ) -3.0140205392e+02 4.7514131759e+02 
56               7.5814715881e-03 ( 3.8523870060e-01 1.1707111577e-02 2.2222170213e-01 ) 1.2000000000e+02 ( -8.1202735851e-02 1.7972714025e+00 3.9591097225e-01 ) 3.6033305013e+00 3.8717502678e+00 -2.5978987797e+04 ( -8.2902671983e-02 1.7157387499e+00 -4.1978335415e-01 ) -3.2133729174e+01 ( 4.3295353391e+00 9.2624708689e-01 7.3908228033e-02 ) -3.0187013346e+02 4.7667669357e+02 
57               2.8049528777e-02 ( 4.5931482636e-01 1.1821138331e-02 -7.4074072397e-02 ) 1.2000000000e+02 ( -8.2048720590e-02 1.7251067168e+00 4.2876347809e-01 ) 3.6075257654e+00 3.8751672205e+00 -2.6058011972e+04 ( -8.2902671983e-02 1.7157387499e+00 -4.1978335415e-01 ) -3.2180616991e+01 ( 4.3295353391e+00 9.2624708689e-01 7.3908228033e-02 ) -3.0231332879e+02 4.7815048946e+02 
58               3.4299094105e-02 ( 5.3369903242e-01 1.1846963448e-02 -1.7976592675e-09 ) 1.2000000000e+02 ( -3.8050483730e-02 1.7675938352e+00 5.3082450273e-01 ) 3.6116000560e+00 3.8784703555e+00 -2.6133732134e+04 ( -8.2902671983e-02 1.7157387499e+00 -4.1978335415e-01 ) -3.2223877405e+01 ( 4.3295353391e+00 9.2624708689e-01 7.3908228033e-02 ) -3.0272698517e+02 4.7956653835e+02 
59               5.8397449513e-02 ( 3.1183256659e-01 3.6839700828e-02 -1.1923758244e-09 ) 1.2000000000e+02 ( -7.9976615863e-02 1.7158255751e+00 5.0037013275e-01 ) 3.6155612414e+00 3.8816771306e+00 -2.6206274406e+04 ( -8.2902671983e-02 1.7157387499e+00 -4.1978335415e-01 ) -3.2263293431e+01 ( 4.3295353391e+00 9.2624708689e-01 7.3908228033e-02 ) -3.0310935487e+02 4.8092761674e+02 
60               4.4625945290e-02 ( 6.0819723804e-01 1.1851277979e-02 7.4074057931e-02 ) 1.2000000000e+02 ( -8.0301497036e-02 1.7692920130e+00 4.1732693167e-01 ) 3.6194099310e+00 3.8847508208e+00 -2.6275639605e+04 ( -8.2902671983e-02 1.7157387499e+00 -4.1978335415e-01 ) -3.2297839230e+01 ( 4.3295353391e+00 9.2624708689e-01 7.3908228033e-02 ) -3.0345142062e+02 4.8223636679e+02 
61               4.3828996088e-02 ( 2.4290756417e-02 3.9923001580e-03 -9.7790712899e-01 ) 1.2000000000e+02 ( -4.1068562164e-02 1.8599473672e+00 4.3698268919e-01 ) 3.6232177425e+00 3.8877104109e+00 -2.6341964362e+04 ( -8.2902671983e-02 1.7157387499e+00 -4.1978335415e-01 ) -3.2331039466e+01 ( 4.3295353391e+00 9.2624708689e-01 7.3908228033e-02 ) -3.0378557216e+02 4.8349859668e+02 
62               3.5249614404e-02 ( 6.8273061071e-01 1.1851752516e-02 2.9629291569e-01 ) 1.2000000000e+02 ( -8.2048720590e-02 1.7251067168e+00 4.2876347809e-01 ) 3.6269869983e+00 3.8905888113e+00 -2.6405132651e+04 ( -8.2902671983e-02 1.7157387499e+00 -4.1978335415e-01 ) -3.2363883577e+01 ( 4.3295353391e+00 9.2624708689e-01 7.3908228033e-02 ) -3.0411856290e+02 4.8471342390e+02 
63               2.7059807652e-02 ( 7.1398706613e-03 4.6243093152e-01 -9.3558970198e-01 ) 1.2000000000e+02 ( -8.0179769826e-02 1.7158964785e+00 4.7286966643e-01 ) 3.6306861166e+00 3.8933666815e+00 -2.6464944215e+04 ( -8.2902671983e-02 1.7157387499e+00 -4.1978335415e-01 ) -3.2395210385e+01 ( 4.3295353391e+00 9.2624708689e-01 7.3908228033e-02 ) -3.0443704146e+02 4.8587786535e+02 
64               3.6111141400e-02 ( 3.9200596272e-03 2.1854833644e-02 -9.7816608095e-01 ) 1.2000000000e+02 ( -8.2189093656e-02 1.7252332301e+00 -5.7139141661e-01 ) 3.6343134926e+00 3.8960141016e+00 -2.6520396449e+04 ( -8.2902671983e-02 1.7157387499e+00 -4.1978335415e-01 ) -3.2424875521e+01 ( 4.3295353391e+00 9.2624708689e-01 7.3908228033e-02 ) -3.0473873178e+02 4.8699095481e+02 
65               3.8122499516e-02 ( 3.9200596272e-03 2.1854833644e-02 -9.7816608095e-01 ) 1.2000000000e+02 ( -7.9565693948e-02 1.7687903060e+00 4.9968010237e-01 ) 3.6378270684e+00 3.8985774231e+00 -2.6573558902e+04 ( -8.2902671983e-02 1.7157387499e+00 -4.1978335415e-01 ) -3.2453795595e+01 ( 4.3295353391e+00 9.2624708689e-01 7.3908228033e-02 ) -3.0503162473e+02 4.8805528079e+02 
66               3.6612108367e-02 ( 3.9200596272e-03 2.1854833644e-02 -9.7816608095e-01 ) 1.2000000000e+02 ( -8.2048720590e-02 1.7251067168e+00 4.2876347809e-01 ) 3.6412419065e+00 3.9010310433e+00 -2.6625532455e+04 ( -8.2901910753e-02 1.7157351355e+00 4.1978590682e-01 ) -3.2481808837e+01 ( 4.3295353391e+00 9.2624708689e-01 7.3908228033e-02 ) -3.0531387531e+02 4.8907052646e+02 
67               2.6166359724e-02 ( 3.9200596272e-03 2.1854833644e-02 -9.7816608095e-01 ) 1.2000000000e+02 ( 1.2603028477e-03 1.8303901704e+00 -4.9977749143e-01 ) 3.6445761070e+00 3.9033395760e+00 -2.6676587270e+04 ( -8.2901910753e-02 1.7157351355e+00 4.1978590682e-01 ) -3.2508470919e+01 ( 4.3295353391e+00 9.2624708689e-01 7.3908228033e-02 ) -3.0558129499e+02 4.9003754078e+02 
68               9.7712349087e-03 ( 3.9200596272e-03 2.1854833644e-02 -9.7816608095e-01 ) 1.2000000000e+02 ( -8.2048720590e-02 1.7251067168e+00 4.2876347809e-01 ) 3.6477981995e+00 3.9055069075e+00 -2.6725283299e+04 ( -8.2901910753e-02 1.7157351355e+00 4.1978590682e-01 ) -3.2532828961e+01 ( 4.3295353391e+00 9.2624708689e-01 7.3908228033e-02 ) -3.0582564567e+02 4.9095815185e+02 
69               1.6189414167e-02 ( 3.9200596272e-03 2.1854833644e-02 -9.7816608095e-01 ) 1.2000000000e+02 ( -8.0125189898e-02 1.8316555635e+00 4.3686329020e-01 ) 3.6509032693e+00 3.9075391665e+00 -2.6771569665e+04 ( -8.2901910753e-02 1.7157351355e+00 4.1978590682e-01 ) -3.2555263597e+01 ( 4.3295353391e+00 9.2624708689e-01 7.3908228033e-02 ) -3.0605152870e+02 4.9183716195e+02 
70               4.2727740768e-02 ( 3.9200596272e-03 2.1854833644e-02 -9.7816608095e-01 ) 1.2000000000e+02 ( -8.2048720590e-02 1.7251067168e+00 4.2876347809e-01 ) 3.6539241285e+00 3.9094419757e+00 -2.6815568675e+04 ( -8.2901910753e-02 1.7157351355e+00 4.1978590682e-01 ) -3.2576951608e+01 ( 4.3295353391e+00 9.2624708689e-01 7.3908228033e-02 ) -3.0627037222e+02 4.9267814234e+02 
71               6.1688860091e-02 ( 7.5727337688e-01 1.1851849114e-02 -7.4074072065e-02 ) 1.2000000000e+02 ( -4.2507010181e-02 1.7975274813e+00 6.0468111559e-01 ) 3.6568719942e+00 3.9112079119e+00 -2.6857380598e+04 ( -8.2901910753e-02 1.7157351355e+00 4.1978590682e-01 ) -3.2597535645e+01 ( 4.3295353391e+00 9.2624708689e-01 7.3908228033e-02 ) -3.0647867327e+02 4.9348158306e+02 
72               7.2662391549e-02 ( 7.5727337688e-01 1.1851849114e-02 -7.4074072065e-02 ) 1.2000000000e+02 ( -8.0102021650e-02 1.8577570070e+00 4.9986701126e-01 ) 3.6597616638e+00 3.9128425287e+00 -2.6897157420e+04 ( -8.2901910753e-02 1.7157351355e+00 4.1978590682e-01 ) -3.2617479926e+01 ( 4.3295353391e+00 9.2624708689e-01 7.3908228033e-02 ) -3.0668042747e+02 4.9424988348e+02 
73               8.7129551213e-02 ( 8.3181828383e-01 3.8501945552e-02 -5.1845330313e-01 ) 1.2000000000e+02 ( -4.1388909887e-02 1.8840039625e+00 4.7066394489e-01 ) 3.6626114671e+00 3.9143446068e+00 -2.6935012419e+04 ( -8.2901910753e-02 1.7157351355e+00 4.1978590682e-01 ) -3.2637228462e+01 ( 4.3295353391e+00 9.2624708689e-01 7.3908228033e-02 ) -3.0687923204e+02 4.9498515291e+02 
74               1.0494483068e-01 ( 1.2045454535e+00 1.0408040090e-02 -8.1014642070e-01 ) 1.2000000000e+02 ( -7.9920934341e-02 1.7370641040e+00 4.6757006039e-01 ) 3.6654332109e+00 3.9157189484e+00 -2.6970805828e+04 ( -8.2901910753e-02 1.7157351355e+00 4.1978590682e-01 ) -3.2656579519e+01 ( 4.3295353391e+00 9.2624708689e-01 7.3908228033e-02 ) -3.0707287807e+02 4.9568812670e+02 
75               8.8328689057e-02 ( 1.2790909081e+00 8.7682331852e-03 -8.7938456960e-01 ) 1.2000000000e+02 ( -7.9920934341e-02 1.7370641040e+00 4.6757006039e-01 ) 3.6682165911e+00 3.9169843016e+00 -2.7004951490e+04 ( -8.2901910753e-02 1.7157351355e+00 4.1978590682e-01 ) -3.2675492815e+01 ( 4.3295353391e+00 9.2624708689e-01 7.3908228033e-02 ) -3.0726078780e+02 4.9635994477e+02 
76               6.4894817622e-02 ( 3.9200596272e-03 2.1854833644e-02 -9.7816608095e-01 ) 1.2000000000e+02 ( -8.1351556775e-02 1.7023921330e+00 4.6380884747e-01 ) 3.6709557885e+00 3.9181529370e+00 -2.7037985075e+04 ( -8.2901910753e-02 1.7157351355e+00 4.1978590682e-01 ) -3.2693780323e+01 ( 4.3295353391e+00 9.2624708689e-01 7.3908228033e-02 ) -3.0744133236e+02 4.9700161604e+02 
77               5.9344557228e-02 ( 3.9200596272e-03 2.1854833644e-02 -9.7816608095e-01 ) 1.2000000000e+02 ( -8.0396168142e-02 1.7161151315e+00 5.2778676845e-01 ) 3.6736626229e+00 3.9192254010e+00 -2.7070450312e+04 ( -8.2901910753e-02 1.7157351355e+00 4.1978590682e-01 ) -3.2711426544e+01 ( 4.3295353391e+00 9.2624708689e-01 7.3908228033e-02 ) -3.0761482495e+02 4.9761415064e+02 
78               7.0060753499e-02 ( 3.9200596272e-03 2.1854833644e-02 -9.7816608095e-01 ) 1.2000000000e+02 ( 1.9202492630e-03 1.7984486217e+00 4.9958598659e-01 ) 3.6763509611e+00 3.9202028387e+00 -2.7105061495e+04 ( -8.2902671983e-02 1.7157387499e+00 -4.1978335415e-01 ) -3.2728471341e+01 ( 4.3295353391e+00 9.2624708689e-01 7.3908228033e-02 ) -3.0778221161e+02 4.9819869041e+02 